MODEL 1
REMARK VINA RESULT:      -8.4      0.000      0.000
REMARK  Name = 99331
REMARK  2 active torsions:
REMARK  status: ('A' for Active; 'I' for Inactive)
REMARK    1  A    between atoms: N_4  and  C_7
REMARK    2  A    between atoms: C_10  and  C_17
REMARK                            x       y       z     vdW  Elec       q    Type
REMARK                         _______ _______ _______ _____ _____    ______ ____
ROOT
ATOM      2  O   UNL     1      21.467  -7.347   8.112  0.00  0.00    +0.000 OA
ATOM      3  O   UNL     1      23.972  -4.034   9.030  0.00  0.00    +0.000 OA
ATOM      4  N   UNL     1      25.855  -3.831   7.652  0.00  0.00    +0.000 N 
ATOM      5  N   UNL     1      24.373  -5.568   7.312  0.00  0.00    +0.000 N 
ATOM      6  N   UNL     1      22.342  -6.292   8.341  0.00  0.00    +0.000 NA
ATOM      8  C   UNL     1      23.274  -6.453   7.424  0.00  0.00    +0.000 A 
ATOM      9  C   UNL     1      23.086  -7.545   6.592  0.00  0.00    +0.000 A 
ATOM     10  C   UNL     1      21.922  -8.087   7.069  0.00  0.00    +0.000 A 
ATOM     13  C   UNL     1      24.656  -4.440   8.097  0.00  0.00    +0.000 C 
ATOM     17  C   UNL     1      21.112  -9.252   6.689  0.00  0.00    +0.000 C 
ATOM     18  H   UNL     1      26.316  -4.279   6.864  0.00  0.00    +0.000 HD
ATOM     19  H   UNL     1      25.025  -5.797   6.566  0.00  0.00    +0.000 HD
ENDROOT
BRANCH   4   7
ATOM      1  F   UNL     1      28.385   0.667   9.624  0.00  0.00    +0.000 F 
ATOM      7  C   UNL     1      26.492  -2.694   8.151  0.00  0.00    +0.000 A 
ATOM     11  C   UNL     1      26.461  -1.503   7.426  0.00  0.00    +0.000 A 
ATOM     12  C   UNL     1      27.163  -2.751   9.372  0.00  0.00    +0.000 A 
ATOM     14  C   UNL     1      27.100  -0.367   7.925  0.00  0.00    +0.000 A 
ATOM     15  C   UNL     1      27.802  -1.614   9.870  0.00  0.00    +0.000 A 
ATOM     16  C   UNL     1      27.771  -0.423   9.147  0.00  0.00    +0.000 A 
ENDBRANCH   4   7
TORSDOF 1
ENDMDL
MODEL 2
REMARK VINA RESULT:      -7.1      6.172      9.216
REMARK  Name = 99331
REMARK  2 active torsions:
REMARK  status: ('A' for Active; 'I' for Inactive)
REMARK    1  A    between atoms: N_4  and  C_7
REMARK    2  A    between atoms: C_10  and  C_17
REMARK                            x       y       z     vdW  Elec       q    Type
REMARK                         _______ _______ _______ _____ _____    ______ ____
ROOT
ATOM      2  O   UNL     1      32.961  -3.023  15.628  0.00  0.00    +0.000 OA
ATOM      3  O   UNL     1      30.190  -1.524  12.771  0.00  0.00    +0.000 OA
ATOM      4  N   UNL     1      30.303  -2.560  10.673  0.00  0.00    +0.000 N 
ATOM      5  N   UNL     1      31.729  -3.235  12.360  0.00  0.00    +0.000 N 
ATOM      6  N   UNL     1      32.091  -2.595  14.632  0.00  0.00    +0.000 NA
ATOM      8  C   UNL     1      32.398  -3.355  13.600  0.00  0.00    +0.000 A 
ATOM      9  C   UNL     1      33.417  -4.264  13.833  0.00  0.00    +0.000 A 
ATOM     10  C   UNL     1      33.746  -4.017  15.139  0.00  0.00    +0.000 A 
ATOM     13  C   UNL     1      30.691  -2.353  12.019  0.00  0.00    +0.000 C 
ATOM     17  C   UNL     1      34.732  -4.589  16.066  0.00  0.00    +0.000 C 
ATOM     18  H   UNL     1      30.810  -3.286  10.170  0.00  0.00    +0.000 HD
ATOM     19  H   UNL     1      32.056  -3.875  11.640  0.00  0.00    +0.000 HD
ENDROOT
BRANCH   4   7
ATOM      1  F   UNL     1      26.389   0.049   7.776  0.00  0.00    +0.000 F 
ATOM      7  C   UNL     1      29.316  -1.902   9.940  0.00  0.00    +0.000 A 
ATOM     11  C   UNL     1      29.543  -0.610   9.467  0.00  0.00    +0.000 A 
ATOM     12  C   UNL     1      28.100  -2.535   9.683  0.00  0.00    +0.000 A 
ATOM     14  C   UNL     1      28.554   0.049   8.735  0.00  0.00    +0.000 A 
ATOM     15  C   UNL     1      27.111  -1.876   8.951  0.00  0.00    +0.000 A 
ATOM     16  C   UNL     1      27.338  -0.584   8.477  0.00  0.00    +0.000 A 
ENDBRANCH   4   7
TORSDOF 1
ENDMDL
MODEL 3
REMARK VINA RESULT:      -7.0      3.550      7.710
REMARK  Name = 99331
REMARK  2 active torsions:
REMARK  status: ('A' for Active; 'I' for Inactive)
REMARK    1  A    between atoms: N_4  and  C_7
REMARK    2  A    between atoms: C_10  and  C_17
REMARK                            x       y       z     vdW  Elec       q    Type
REMARK                         _______ _______ _______ _____ _____    ______ ____
ROOT
ATOM      2  O   UNL     1      27.907  -0.696   7.292  0.00  0.00    +0.000 OA
ATOM      3  O   UNL     1      25.402  -4.065   6.609  0.00  0.00    +0.000 OA
ATOM      4  N   UNL     1      24.738  -5.190   8.554  0.00  0.00    +0.000 N 
ATOM      5  N   UNL     1      26.103  -3.334   8.717  0.00  0.00    +0.000 N 
ATOM      6  N   UNL     1      27.087  -1.810   7.163  0.00  0.00    +0.000 NA
ATOM      8  C   UNL     1      26.898  -2.206   8.405  0.00  0.00    +0.000 A 
ATOM      9  C   UNL     1      27.537  -1.434   9.363  0.00  0.00    +0.000 A 
ATOM     10  C   UNL     1      28.169  -0.483   8.607  0.00  0.00    +0.000 A 
ATOM     13  C   UNL     1      25.417  -4.179   7.831  0.00  0.00    +0.000 C 
ATOM     17  C   UNL     1      29.029   0.664   8.927  0.00  0.00    +0.000 C 
ATOM     18  H   UNL     1      24.841  -5.158   9.566  0.00  0.00    +0.000 HD
ATOM     19  H   UNL     1      26.033  -3.540   9.710  0.00  0.00    +0.000 HD
ENDROOT
BRANCH   4   7
ATOM      1  F   UNL     1      21.595  -9.296   6.610  0.00  0.00    +0.000 F 
ATOM      7  C   UNL     1      23.944  -6.227   8.065  0.00  0.00    +0.000 A 
ATOM     11  C   UNL     1      24.393  -7.545   8.142  0.00  0.00    +0.000 A 
ATOM     12  C   UNL     1      22.703  -5.945   7.496  0.00  0.00    +0.000 A 
ATOM     14  C   UNL     1      23.598  -8.582   7.651  0.00  0.00    +0.000 A 
ATOM     15  C   UNL     1      21.908  -6.982   7.005  0.00  0.00    +0.000 A 
ATOM     16  C   UNL     1      22.356  -8.300   7.082  0.00  0.00    +0.000 A 
ENDBRANCH   4   7
TORSDOF 1
ENDMDL
MODEL 4
REMARK VINA RESULT:      -6.6      6.394      9.887
REMARK  Name = 99331
REMARK  2 active torsions:
REMARK  status: ('A' for Active; 'I' for Inactive)
REMARK    1  A    between atoms: N_4  and  C_7
REMARK    2  A    between atoms: C_10  and  C_17
REMARK                            x       y       z     vdW  Elec       q    Type
REMARK                         _______ _______ _______ _____ _____    ______ ____
ROOT
ATOM      2  O   UNL     1      33.545  -1.840  15.336  0.00  0.00    +0.000 OA
ATOM      3  O   UNL     1      30.255  -1.507  12.661  0.00  0.00    +0.000 OA
ATOM      4  N   UNL     1      30.788  -1.901  10.414  0.00  0.00    +0.000 N 
ATOM      5  N   UNL     1      32.441  -2.034  12.021  0.00  0.00    +0.000 N 
ATOM      6  N   UNL     1      32.530  -1.752  14.391  0.00  0.00    +0.000 NA
ATOM      8  C   UNL     1      33.137  -2.020  13.253  0.00  0.00    +0.000 A 
ATOM      9  C   UNL     1      34.492  -2.283  13.368  0.00  0.00    +0.000 A 
ATOM     10  C   UNL     1      34.709  -2.156  14.714  0.00  0.00    +0.000 A 
ATOM     13  C   UNL     1      31.079  -1.785  11.795  0.00  0.00    +0.000 C 
ATOM     17  C   UNL     1      35.895  -2.289  15.570  0.00  0.00    +0.000 C 
ATOM     18  H   UNL     1      31.574  -2.138   9.813  0.00  0.00    +0.000 HD
ATOM     19  H   UNL     1      33.018  -2.254  11.213  0.00  0.00    +0.000 HD
ENDROOT
BRANCH   4   7
ATOM      1  F   UNL     1      25.950  -1.239   7.831  0.00  0.00    +0.000 F 
ATOM      7  C   UNL     1      29.566  -1.734   9.764  0.00  0.00    +0.000 A 
ATOM     11  C   UNL     1      28.703  -2.819   9.609  0.00  0.00    +0.000 A 
ATOM     12  C   UNL     1      29.208  -0.482   9.264  0.00  0.00    +0.000 A 
ATOM     14  C   UNL     1      27.482  -2.651   8.957  0.00  0.00    +0.000 A 
ATOM     15  C   UNL     1      27.985  -0.314   8.611  0.00  0.00    +0.000 A 
ATOM     16  C   UNL     1      27.122  -1.399   8.458  0.00  0.00    +0.000 A 
ENDBRANCH   4   7
TORSDOF 1
ENDMDL
MODEL 5
REMARK VINA RESULT:      -6.3      6.097      9.149
REMARK  Name = 99331
REMARK  2 active torsions:
REMARK  status: ('A' for Active; 'I' for Inactive)
REMARK    1  A    between atoms: N_4  and  C_7
REMARK    2  A    between atoms: C_10  and  C_17
REMARK                            x       y       z     vdW  Elec       q    Type
REMARK                         _______ _______ _______ _____ _____    ______ ____
ROOT
ATOM      2  O   UNL     1      33.941  -4.678  13.606  0.00  0.00    +0.000 OA
ATOM      3  O   UNL     1      31.106  -3.250  10.775  0.00  0.00    +0.000 OA
ATOM      4  N   UNL     1      29.621  -1.644  11.614  0.00  0.00    +0.000 N 
ATOM      5  N   UNL     1      31.236  -2.542  13.000  0.00  0.00    +0.000 N 
ATOM      6  N   UNL     1      32.979  -4.156  12.750  0.00  0.00    +0.000 NA
ATOM      8  C   UNL     1      32.319  -3.301  13.504  0.00  0.00    +0.000 A 
ATOM      9  C   UNL     1      32.770  -3.212  14.811  0.00  0.00    +0.000 A 
ATOM     10  C   UNL     1      33.805  -4.108  14.832  0.00  0.00    +0.000 A 
ATOM     13  C   UNL     1      30.702  -2.555  11.702  0.00  0.00    +0.000 C 
ATOM     17  C   UNL     1      34.748  -4.549  15.868  0.00  0.00    +0.000 C 
ATOM     18  H   UNL     1      29.399  -1.134  12.466  0.00  0.00    +0.000 HD
ATOM     19  H   UNL     1      30.807  -1.917  13.677  0.00  0.00    +0.000 HD
ENDROOT
BRANCH   4   7
ATOM      1  F   UNL     1      26.432  -0.473   7.258  0.00  0.00    +0.000 F 
ATOM      7  C   UNL     1      28.818  -1.348  10.513  0.00  0.00    +0.000 A 
ATOM     11  C   UNL     1      28.925  -0.109   9.883  0.00  0.00    +0.000 A 
ATOM     12  C   UNL     1      27.904  -2.292  10.045  0.00  0.00    +0.000 A 
ATOM     14  C   UNL     1      28.119   0.186   8.783  0.00  0.00    +0.000 A 
ATOM     15  C   UNL     1      27.098  -1.996   8.944  0.00  0.00    +0.000 A 
ATOM     16  C   UNL     1      27.206  -0.757   8.314  0.00  0.00    +0.000 A 
ENDBRANCH   4   7
TORSDOF 1
ENDMDL
MODEL 6
REMARK VINA RESULT:      -6.2     15.225     16.799
REMARK  Name = 99331
REMARK  2 active torsions:
REMARK  status: ('A' for Active; 'I' for Inactive)
REMARK    1  A    between atoms: N_4  and  C_7
REMARK    2  A    between atoms: C_10  and  C_17
REMARK                            x       y       z     vdW  Elec       q    Type
REMARK                         _______ _______ _______ _____ _____    ______ ____
ROOT
ATOM      2  O   UNL     1      23.971 -10.220  19.764  0.00  0.00    +0.000 OA
ATOM      3  O   UNL     1      19.782  -9.607  20.169  0.00  0.00    +0.000 OA
ATOM      4  N   UNL     1      18.928 -10.111  22.291  0.00  0.00    +0.000 N 
ATOM      5  N   UNL     1      21.183 -10.380  21.873  0.00  0.00    +0.000 N 
ATOM      6  N   UNL     1      22.610 -10.049  19.986  0.00  0.00    +0.000 NA
ATOM      8  C   UNL     1      22.450 -10.409  21.244  0.00  0.00    +0.000 A 
ATOM      9  C   UNL     1      23.611 -10.811  21.884  0.00  0.00    +0.000 A 
ATOM     10  C   UNL     1      24.556 -10.675  20.902  0.00  0.00    +0.000 A 
ATOM     13  C   UNL     1      19.953  -9.992  21.320  0.00  0.00    +0.000 C 
ATOM     17  C   UNL     1      26.005 -10.914  20.844  0.00  0.00    +0.000 C 
ATOM     18  H   UNL     1      19.219 -10.444  23.207  0.00  0.00    +0.000 HD
ATOM     19  H   UNL     1      21.187 -10.681  22.844  0.00  0.00    +0.000 HD
ENDROOT
BRANCH   4   7
ATOM      1  F   UNL     1      13.542  -8.998  21.767  0.00  0.00    +0.000 F 
ATOM      7  C   UNL     1      17.568  -9.830  22.161  0.00  0.00    +0.000 A 
ATOM     11  C   UNL     1      16.650 -10.872  22.027  0.00  0.00    +0.000 A 
ATOM     12  C   UNL     1      17.126  -8.507  22.161  0.00  0.00    +0.000 A 
ATOM     14  C   UNL     1      15.291 -10.590  21.894  0.00  0.00    +0.000 A 
ATOM     15  C   UNL     1      15.766  -8.226  22.029  0.00  0.00    +0.000 A 
ATOM     16  C   UNL     1      14.848  -9.267  21.895  0.00  0.00    +0.000 A 
ENDBRANCH   4   7
TORSDOF 1
ENDMDL
MODEL 7
REMARK VINA RESULT:      -6.0     17.510     19.090
REMARK  Name = 99331
REMARK  2 active torsions:
REMARK  status: ('A' for Active; 'I' for Inactive)
REMARK    1  A    between atoms: N_4  and  C_7
REMARK    2  A    between atoms: C_10  and  C_17
REMARK                            x       y       z     vdW  Elec       q    Type
REMARK                         _______ _______ _______ _____ _____    ______ ____
ROOT
ATOM      2  O   UNL     1      23.082  -7.207  26.791  0.00  0.00    +0.000 OA
ATOM      3  O   UNL     1      19.569  -8.556  24.808  0.00  0.00    +0.000 OA
ATOM      4  N   UNL     1      18.236  -6.845  23.924  0.00  0.00    +0.000 N 
ATOM      5  N   UNL     1      20.188  -6.314  25.039  0.00  0.00    +0.000 N 
ATOM      6  N   UNL     1      21.913  -7.557  26.126  0.00  0.00    +0.000 NA
ATOM      8  C   UNL     1      21.403  -6.399  25.758  0.00  0.00    +0.000 A 
ATOM      9  C   UNL     1      22.150  -5.293  26.131  0.00  0.00    +0.000 A 
ATOM     10  C   UNL     1      23.211  -5.855  26.788  0.00  0.00    +0.000 A 
ATOM     13  C   UNL     1      19.359  -7.364  24.614  0.00  0.00    +0.000 C 
ATOM     17  C   UNL     1      24.400  -5.309  27.454  0.00  0.00    +0.000 C 
ATOM     18  H   UNL     1      18.196  -5.832  23.839  0.00  0.00    +0.000 HD
ATOM     19  H   UNL     1      19.897  -5.366  24.812  0.00  0.00    +0.000 HD
ENDROOT
BRANCH   4   7
ATOM      1  F   UNL     1      14.037  -9.596  21.619  0.00  0.00    +0.000 F 
ATOM      7  C   UNL     1      17.176  -7.538  23.341  0.00  0.00    +0.000 A 
ATOM     11  C   UNL     1      15.945  -7.607  23.994  0.00  0.00    +0.000 A 
ATOM     12  C   UNL     1      17.347  -8.165  22.108  0.00  0.00    +0.000 A 
ATOM     14  C   UNL     1      14.885  -8.301  23.411  0.00  0.00    +0.000 A 
ATOM     15  C   UNL     1      16.286  -8.861  21.525  0.00  0.00    +0.000 A 
ATOM     16  C   UNL     1      15.055  -8.929  22.177  0.00  0.00    +0.000 A 
ENDBRANCH   4   7
TORSDOF 1
ENDMDL
MODEL 8
REMARK VINA RESULT:      -6.0     17.389     19.078
REMARK  Name = 99331
REMARK  2 active torsions:
REMARK  status: ('A' for Active; 'I' for Inactive)
REMARK    1  A    between atoms: N_4  and  C_7
REMARK    2  A    between atoms: C_10  and  C_17
REMARK                            x       y       z     vdW  Elec       q    Type
REMARK                         _______ _______ _______ _____ _____    ______ ____
ROOT
ATOM      2  O   UNL     1      24.911 -22.221   6.293  0.00  0.00    +0.000 OA
ATOM      3  O   UNL     1      20.769 -22.587   7.189  0.00  0.00    +0.000 OA
ATOM      4  N   UNL     1      19.897 -20.838   8.480  0.00  0.00    +0.000 N 
ATOM      5  N   UNL     1      22.130 -20.820   7.890  0.00  0.00    +0.000 N 
ATOM      6  N   UNL     1      23.564 -22.259   6.634  0.00  0.00    +0.000 NA
ATOM      8  C   UNL     1      23.389 -21.163   7.343  0.00  0.00    +0.000 A 
ATOM      9  C   UNL     1      24.527 -20.389   7.504  0.00  0.00    +0.000 A 
ATOM     10  C   UNL     1      25.474 -21.103   6.819  0.00  0.00    +0.000 A 
ATOM     13  C   UNL     1      20.922 -21.528   7.787  0.00  0.00    +0.000 C 
ATOM     17  C   UNL     1      26.905 -20.903   6.554  0.00  0.00    +0.000 C 
ATOM     18  H   UNL     1      20.173 -19.968   8.931  0.00  0.00    +0.000 HD
ATOM     19  H   UNL     1      22.121 -19.951   8.418  0.00  0.00    +0.000 HD
ENDROOT
BRANCH   4   7
ATOM      1  F   UNL     1      14.582 -22.227   9.062  0.00  0.00    +0.000 F 
ATOM      7  C   UNL     1      18.556 -21.190   8.628  0.00  0.00    +0.000 A 
ATOM     11  C   UNL     1      17.995 -22.165   7.803  0.00  0.00    +0.000 A 
ATOM     12  C   UNL     1      17.774 -20.565   9.599  0.00  0.00    +0.000 A 
ATOM     14  C   UNL     1      16.653 -22.515   7.950  0.00  0.00    +0.000 A 
ATOM     15  C   UNL     1      16.432 -20.916   9.746  0.00  0.00    +0.000 A 
ATOM     16  C   UNL     1      15.871 -21.891   8.922  0.00  0.00    +0.000 A 
ENDBRANCH   4   7
TORSDOF 1
ENDMDL
MODEL 9
REMARK VINA RESULT:      -5.7      8.246     10.915
REMARK  Name = 99331
REMARK  2 active torsions:
REMARK  status: ('A' for Active; 'I' for Inactive)
REMARK    1  A    between atoms: N_4  and  C_7
REMARK    2  A    between atoms: C_10  and  C_17
REMARK                            x       y       z     vdW  Elec       q    Type
REMARK                         _______ _______ _______ _____ _____    ______ ____
ROOT
ATOM      2  O   UNL     1      30.245  -0.944   9.613  0.00  0.00    +0.000 OA
ATOM      3  O   UNL     1      32.094   2.738   8.560  0.00  0.00    +0.000 OA
ATOM      4  N   UNL     1      34.436   2.700   8.621  0.00  0.00    +0.000 N 
ATOM      5  N   UNL     1      33.247   0.795   9.162  0.00  0.00    +0.000 N 
ATOM      6  N   UNL     1      30.933   0.217   9.284  0.00  0.00    +0.000 NA
ATOM      8  C   UNL     1      32.200  -0.122   9.412  0.00  0.00    +0.000 A 
ATOM      9  C   UNL     1      32.411  -1.434   9.806  0.00  0.00    +0.000 A 
ATOM     10  C   UNL     1      31.137  -1.920   9.923  0.00  0.00    +0.000 A 
ATOM     13  C   UNL     1      33.144   2.137   8.761  0.00  0.00    +0.000 C 
ATOM     17  C   UNL     1      30.576  -3.225  10.299  0.00  0.00    +0.000 C 
ATOM     18  H   UNL     1      35.216   2.079   8.821  0.00  0.00    +0.000 HD
ATOM     19  H   UNL     1      34.181   0.416   9.294  0.00  0.00    +0.000 HD
ENDROOT
BRANCH   4   7
ATOM      1  F   UNL     1      35.823   7.835   7.130  0.00  0.00    +0.000 F 
ATOM      7  C   UNL     1      34.784   3.997   8.243  0.00  0.00    +0.000 A 
ATOM     11  C   UNL     1      35.360   4.229   6.995  0.00  0.00    +0.000 A 
ATOM     12  C   UNL     1      34.560   5.061   9.117  0.00  0.00    +0.000 A 
ATOM     14  C   UNL     1      35.710   5.526   6.618  0.00  0.00    +0.000 A 
ATOM     15  C   UNL     1      34.910   6.358   8.740  0.00  0.00    +0.000 A 
ATOM     16  C   UNL     1      35.485   6.591   7.491  0.00  0.00    +0.000 A 
ENDBRANCH   4   7
TORSDOF 1
ENDMDL
