MODEL 1
REMARK VINA RESULT:      -8.0      0.000      0.000
REMARK  Name = 125483
REMARK  4 active torsions:
REMARK  status: ('A' for Active; 'I' for Inactive)
REMARK    1  A    between atoms: S_1  and  N_6
REMARK    2  A    between atoms: S_1  and  C_9
REMARK    3  A    between atoms: N_8  and  C_17
REMARK    4  A    between atoms: C_16  and  C_18
REMARK                            x       y       z     vdW  Elec       q    Type
REMARK                         _______ _______ _______ _____ _____    ______ ____
ROOT
ATOM      1  S   UNL     1      29.027  -0.171   9.254  0.00  0.00    +0.000 S 
ATOM      3  O   UNL     1      29.512   0.686   8.179  0.00  0.00    +0.000 OA
ATOM      4  O   UNL     1      28.367   0.428  10.407  0.00  0.00    +0.000 OA
ENDROOT
BRANCH   1   6
ATOM      2  O   UNL     1      30.250  -1.801  13.256  0.00  0.00    +0.000 OA
ATOM      6  N   UNL     1      30.307  -1.165   9.794  0.00  0.00    +0.000 N 
ATOM      7  N   UNL     1      29.707  -1.203  12.124  0.00  0.00    +0.000 NA
ATOM     10  C   UNL     1      30.514  -1.571  11.134  0.00  0.00    +0.000 A 
ATOM     13  C   UNL     1      31.568  -2.386  11.554  0.00  0.00    +0.000 A 
ATOM     16  C   UNL     1      31.358  -2.502  12.903  0.00  0.00    +0.000 A 
ATOM     18  C   UNL     1      32.063  -3.203  13.984  0.00  0.00    +0.000 C 
ATOM     19  H   UNL     1      31.035  -1.422   9.118  0.00  0.00    +0.000 HD
ENDBRANCH   1   6
BRANCH   1   9
ATOM      9  C   UNL     1      27.944  -1.353   8.562  0.00  0.00    +0.000 A 
ATOM     11  C   UNL     1      27.579  -1.263   7.218  0.00  0.00    +0.000 A 
ATOM     12  C   UNL     1      27.442  -2.387   9.353  0.00  0.00    +0.000 A 
ATOM     14  C   UNL     1      26.712  -2.207   6.667  0.00  0.00    +0.000 A 
ATOM     15  C   UNL     1      26.577  -3.331   8.801  0.00  0.00    +0.000 A 
ATOM     17  C   UNL     1      26.212  -3.240   7.457  0.00  0.00    +0.000 A 
BRANCH  17   8
ATOM      5  O   UNL     1      25.527  -5.316   7.352  0.00  0.00    +0.000 OA
ATOM      8  N   UNL     1      25.360  -4.170   6.914  0.00  0.00    +0.000 NA
ENDBRANCH  17   8
ENDBRANCH   1   9
TORSDOF 3
ENDMDL
MODEL 2
REMARK VINA RESULT:      -7.9      2.424      6.553
REMARK  Name = 125483
REMARK  4 active torsions:
REMARK  status: ('A' for Active; 'I' for Inactive)
REMARK    1  A    between atoms: S_1  and  N_6
REMARK    2  A    between atoms: S_1  and  C_9
REMARK    3  A    between atoms: N_8  and  C_17
REMARK    4  A    between atoms: C_16  and  C_18
REMARK                            x       y       z     vdW  Elec       q    Type
REMARK                         _______ _______ _______ _____ _____    ______ ____
ROOT
ATOM      1  S   UNL     1      26.455  -1.716   7.422  0.00  0.00    +0.000 S 
ATOM      3  O   UNL     1      25.977  -0.366   7.150  0.00  0.00    +0.000 OA
ATOM      4  O   UNL     1      27.051  -2.496   6.345  0.00  0.00    +0.000 OA
ENDROOT
BRANCH   1   6
ATOM      2  O   UNL     1      24.868  -5.878   6.845  0.00  0.00    +0.000 OA
ATOM      6  N   UNL     1      25.195  -2.620   8.137  0.00  0.00    +0.000 N 
ATOM      7  N   UNL     1      25.502  -4.641   6.867  0.00  0.00    +0.000 NA
ATOM     10  C   UNL     1      24.854  -3.952   7.800  0.00  0.00    +0.000 A 
ATOM     13  C   UNL     1      23.818  -4.673   8.400  0.00  0.00    +0.000 A 
ATOM     16  C   UNL     1      23.868  -5.885   7.762  0.00  0.00    +0.000 A 
ATOM     18  C   UNL     1      23.088  -7.124   7.873  0.00  0.00    +0.000 C 
ATOM     19  H   UNL     1      24.576  -2.141   8.803  0.00  0.00    +0.000 HD
ENDBRANCH   1   6
BRANCH   1   9
ATOM      9  C   UNL     1      27.605  -1.634   8.733  0.00  0.00    +0.000 A 
ATOM     11  C   UNL     1      28.247  -2.793   9.172  0.00  0.00    +0.000 A 
ATOM     12  C   UNL     1      27.881  -0.411   9.344  0.00  0.00    +0.000 A 
ATOM     14  C   UNL     1      29.165  -2.728  10.220  0.00  0.00    +0.000 A 
ATOM     15  C   UNL     1      28.800  -0.346  10.391  0.00  0.00    +0.000 A 
ATOM     17  C   UNL     1      29.442  -1.505  10.829  0.00  0.00    +0.000 A 
BRANCH  17   8
ATOM      5  O   UNL     1      29.823  -1.424  12.983  0.00  0.00    +0.000 OA
ATOM      8  N   UNL     1      30.346  -1.440  11.860  0.00  0.00    +0.000 NA
ENDBRANCH  17   8
ENDBRANCH   1   9
TORSDOF 3
ENDMDL
MODEL 3
REMARK VINA RESULT:      -7.0      3.174      4.103
REMARK  Name = 125483
REMARK  4 active torsions:
REMARK  status: ('A' for Active; 'I' for Inactive)
REMARK    1  A    between atoms: S_1  and  N_6
REMARK    2  A    between atoms: S_1  and  C_9
REMARK    3  A    between atoms: N_8  and  C_17
REMARK    4  A    between atoms: C_16  and  C_18
REMARK                            x       y       z     vdW  Elec       q    Type
REMARK                         _______ _______ _______ _____ _____    ______ ____
ROOT
ATOM      1  S   UNL     1      26.209  -2.849   7.922  0.00  0.00    +0.000 S 
ATOM      3  O   UNL     1      26.527  -3.193   6.542  0.00  0.00    +0.000 OA
ATOM      4  O   UNL     1      25.799  -1.488   8.245  0.00  0.00    +0.000 OA
ENDROOT
BRANCH   1   6
ATOM      2  O   UNL     1      29.807  -0.682   9.514  0.00  0.00    +0.000 OA
ATOM      6  N   UNL     1      27.520  -3.292   8.924  0.00  0.00    +0.000 N 
ATOM      7  N   UNL     1      28.644  -1.164   8.924  0.00  0.00    +0.000 NA
ATOM     10  C   UNL     1      28.575  -2.433   9.314  0.00  0.00    +0.000 A 
ATOM     13  C   UNL     1      29.638  -2.817  10.136  0.00  0.00    +0.000 A 
ATOM     16  C   UNL     1      30.390  -1.676  10.232  0.00  0.00    +0.000 A 
ATOM     18  C   UNL     1      31.638  -1.338  10.927  0.00  0.00    +0.000 C 
ATOM     19  H   UNL     1      27.604  -4.278   9.198  0.00  0.00    +0.000 HD
ENDBRANCH   1   6
BRANCH   1   9
ATOM      9  C   UNL     1      24.965  -3.938   8.484  0.00  0.00    +0.000 A 
ATOM     11  C   UNL     1      25.006  -5.286   8.126  0.00  0.00    +0.000 A 
ATOM     12  C   UNL     1      23.931  -3.460   9.288  0.00  0.00    +0.000 A 
ATOM     14  C   UNL     1      24.011  -6.156   8.575  0.00  0.00    +0.000 A 
ATOM     15  C   UNL     1      22.937  -4.330   9.736  0.00  0.00    +0.000 A 
ATOM     17  C   UNL     1      22.978  -5.679   9.379  0.00  0.00    +0.000 A 
BRANCH  17   8
ATOM      5  O   UNL     1      21.563  -6.256  10.946  0.00  0.00    +0.000 OA
ATOM      8  N   UNL     1      22.000  -6.535   9.821  0.00  0.00    +0.000 NA
ENDBRANCH  17   8
ENDBRANCH   1   9
TORSDOF 3
ENDMDL
MODEL 4
REMARK VINA RESULT:      -7.0      2.757      6.726
REMARK  Name = 125483
REMARK  4 active torsions:
REMARK  status: ('A' for Active; 'I' for Inactive)
REMARK    1  A    between atoms: S_1  and  N_6
REMARK    2  A    between atoms: S_1  and  C_9
REMARK    3  A    between atoms: N_8  and  C_17
REMARK    4  A    between atoms: C_16  and  C_18
REMARK                            x       y       z     vdW  Elec       q    Type
REMARK                         _______ _______ _______ _____ _____    ______ ____
ROOT
ATOM      1  S   UNL     1      26.337  -2.668   7.780  0.00  0.00    +0.000 S 
ATOM      3  O   UNL     1      25.166  -1.874   8.129  0.00  0.00    +0.000 OA
ATOM      4  O   UNL     1      26.740  -2.774   6.383  0.00  0.00    +0.000 OA
ENDROOT
BRANCH   1   6
ATOM      2  O   UNL     1      23.879  -6.263   6.680  0.00  0.00    +0.000 OA
ATOM      6  N   UNL     1      26.161  -4.236   8.433  0.00  0.00    +0.000 N 
ATOM      7  N   UNL     1      24.546  -5.055   6.848  0.00  0.00    +0.000 NA
ATOM     10  C   UNL     1      25.311  -5.244   7.919  0.00  0.00    +0.000 A 
ATOM     13  C   UNL     1      25.183  -6.522   8.470  0.00  0.00    +0.000 A 
ATOM     16  C   UNL     1      24.267  -7.128   7.651  0.00  0.00    +0.000 A 
ATOM     18  C   UNL     1      23.657  -8.463   7.623  0.00  0.00    +0.000 C 
ATOM     19  H   UNL     1      26.641  -4.446   9.317  0.00  0.00    +0.000 HD
ENDBRANCH   1   6
BRANCH   1   9
ATOM      9  C   UNL     1      27.697  -2.066   8.693  0.00  0.00    +0.000 A 
ATOM     11  C   UNL     1      28.061  -0.722   8.599  0.00  0.00    +0.000 A 
ATOM     12  C   UNL     1      28.422  -2.929   9.516  0.00  0.00    +0.000 A 
ATOM     14  C   UNL     1      29.149  -0.242   9.328  0.00  0.00    +0.000 A 
ATOM     15  C   UNL     1      29.508  -2.448  10.246  0.00  0.00    +0.000 A 
ATOM     17  C   UNL     1      29.872  -1.104  10.151  0.00  0.00    +0.000 A 
BRANCH  17   8
ATOM      5  O   UNL     1      31.977  -1.293  10.719  0.00  0.00    +0.000 OA
ATOM      8  N   UNL     1      30.942  -0.630  10.870  0.00  0.00    +0.000 NA
ENDBRANCH  17   8
ENDBRANCH   1   9
TORSDOF 3
ENDMDL
MODEL 5
REMARK VINA RESULT:      -6.7      2.191      5.824
REMARK  Name = 125483
REMARK  4 active torsions:
REMARK  status: ('A' for Active; 'I' for Inactive)
REMARK    1  A    between atoms: S_1  and  N_6
REMARK    2  A    between atoms: S_1  and  C_9
REMARK    3  A    between atoms: N_8  and  C_17
REMARK    4  A    between atoms: C_16  and  C_18
REMARK                            x       y       z     vdW  Elec       q    Type
REMARK                         _______ _______ _______ _____ _____    ______ ____
ROOT
ATOM      1  S   UNL     1      29.110   0.580   9.122  0.00  0.00    +0.000 S 
ATOM      3  O   UNL     1      28.090   0.883  10.119  0.00  0.00    +0.000 OA
ATOM      4  O   UNL     1      29.881   1.668   8.532  0.00  0.00    +0.000 OA
ENDROOT
BRANCH   1   6
ATOM      2  O   UNL     1      26.136  -2.784   9.015  0.00  0.00    +0.000 OA
ATOM      6  N   UNL     1      28.410  -0.351   7.873  0.00  0.00    +0.000 N 
ATOM      7  N   UNL     1      27.030  -1.748   9.265  0.00  0.00    +0.000 NA
ATOM     10  C   UNL     1      27.468  -1.391   8.062  0.00  0.00    +0.000 A 
ATOM     13  C   UNL     1      26.907  -2.141   7.024  0.00  0.00    +0.000 A 
ATOM     16  C   UNL     1      26.072  -3.008   7.678  0.00  0.00    +0.000 A 
ATOM     18  C   UNL     1      25.168  -4.076   7.235  0.00  0.00    +0.000 C 
ATOM     19  H   UNL     1      28.757  -0.213   6.917  0.00  0.00    +0.000 HD
ENDBRANCH   1   6
BRANCH   1   9
ATOM      9  C   UNL     1      30.230  -0.565   9.817  0.00  0.00    +0.000 A 
ATOM     11  C   UNL     1      31.547  -0.619   9.357  0.00  0.00    +0.000 A 
ATOM     12  C   UNL     1      29.809  -1.425  10.831  0.00  0.00    +0.000 A 
ATOM     14  C   UNL     1      32.441  -1.535   9.913  0.00  0.00    +0.000 A 
ATOM     15  C   UNL     1      30.703  -2.339  11.386  0.00  0.00    +0.000 A 
ATOM     17  C   UNL     1      32.020  -2.394  10.926  0.00  0.00    +0.000 A 
BRANCH  17   8
ATOM      5  O   UNL     1      34.057  -2.861  11.578  0.00  0.00    +0.000 OA
ATOM      8  N   UNL     1      32.900  -3.294  11.473  0.00  0.00    +0.000 NA
ENDBRANCH  17   8
ENDBRANCH   1   9
TORSDOF 3
ENDMDL
MODEL 6
REMARK VINA RESULT:      -6.6      2.970      6.750
REMARK  Name = 125483
REMARK  4 active torsions:
REMARK  status: ('A' for Active; 'I' for Inactive)
REMARK    1  A    between atoms: S_1  and  N_6
REMARK    2  A    between atoms: S_1  and  C_9
REMARK    3  A    between atoms: N_8  and  C_17
REMARK    4  A    between atoms: C_16  and  C_18
REMARK                            x       y       z     vdW  Elec       q    Type
REMARK                         _______ _______ _______ _____ _____    ______ ____
ROOT
ATOM      1  S   UNL     1      30.958  -1.943  12.256  0.00  0.00    +0.000 S 
ATOM      3  O   UNL     1      30.170  -1.435  13.372  0.00  0.00    +0.000 OA
ATOM      4  O   UNL     1      32.013  -1.114  11.687  0.00  0.00    +0.000 OA
ENDROOT
BRANCH   1   6
ATOM      2  O   UNL     1      28.085   0.194   9.545  0.00  0.00    +0.000 OA
ATOM      6  N   UNL     1      29.902  -2.441  11.009  0.00  0.00    +0.000 N 
ATOM      7  N   UNL     1      29.016  -0.270  10.468  0.00  0.00    +0.000 NA
ATOM     10  C   UNL     1      29.062  -1.582  10.261  0.00  0.00    +0.000 A 
ATOM     13  C   UNL     1      28.206  -2.012   9.244  0.00  0.00    +0.000 A 
ATOM     16  C   UNL     1      27.611  -0.852   8.822  0.00  0.00    +0.000 A 
ATOM     18  C   UNL     1      26.611  -0.539   7.793  0.00  0.00    +0.000 C 
ATOM     19  H   UNL     1      29.798  -3.449  10.841  0.00  0.00    +0.000 HD
ENDBRANCH   1   6
BRANCH   1   9
ATOM      9  C   UNL     1      31.664  -3.466  12.736  0.00  0.00    +0.000 A 
ATOM     11  C   UNL     1      31.867  -3.746  14.088  0.00  0.00    +0.000 A 
ATOM     12  C   UNL     1      32.026  -4.403  11.768  0.00  0.00    +0.000 A 
ATOM     14  C   UNL     1      32.432  -4.962  14.471  0.00  0.00    +0.000 A 
ATOM     15  C   UNL     1      32.590  -5.619  12.151  0.00  0.00    +0.000 A 
ATOM     17  C   UNL     1      32.793  -5.899  13.503  0.00  0.00    +0.000 A 
BRANCH  17   8
ATOM      5  O   UNL     1      32.937  -8.065  13.227  0.00  0.00    +0.000 OA
ATOM      8  N   UNL     1      33.348  -7.096  13.881  0.00  0.00    +0.000 NA
ENDBRANCH  17   8
ENDBRANCH   1   9
TORSDOF 3
ENDMDL
MODEL 7
REMARK VINA RESULT:      -6.5      3.680      5.121
REMARK  Name = 125483
REMARK  4 active torsions:
REMARK  status: ('A' for Active; 'I' for Inactive)
REMARK    1  A    between atoms: S_1  and  N_6
REMARK    2  A    between atoms: S_1  and  C_9
REMARK    3  A    between atoms: N_8  and  C_17
REMARK    4  A    between atoms: C_16  and  C_18
REMARK                            x       y       z     vdW  Elec       q    Type
REMARK                         _______ _______ _______ _____ _____    ______ ____
ROOT
ATOM      1  S   UNL     1      32.109  -2.596  13.224  0.00  0.00    +0.000 S 
ATOM      3  O   UNL     1      31.490  -3.170  14.412  0.00  0.00    +0.000 OA
ATOM      4  O   UNL     1      33.285  -3.235  12.648  0.00  0.00    +0.000 OA
ENDROOT
BRANCH   1   6
ATOM      2  O   UNL     1      34.675  -0.408  16.190  0.00  0.00    +0.000 OA
ATOM      6  N   UNL     1      32.452  -0.948  13.515  0.00  0.00    +0.000 N 
ATOM      7  N   UNL     1      33.950  -1.266  15.371  0.00  0.00    +0.000 NA
ATOM     10  C   UNL     1      33.312  -0.461  14.528  0.00  0.00    +0.000 A 
ATOM     13  C   UNL     1      33.579   0.893  14.748  0.00  0.00    +0.000 A 
ATOM     16  C   UNL     1      34.445   0.875  15.809  0.00  0.00    +0.000 A 
ATOM     18  C   UNL     1      35.138   1.920  16.573  0.00  0.00    +0.000 C 
ATOM     19  H   UNL     1      31.932  -0.246  12.975  0.00  0.00    +0.000 HD
ENDBRANCH   1   6
BRANCH   1   9
ATOM      9  C   UNL     1      30.891  -2.477  11.978  0.00  0.00    +0.000 A 
ATOM     11  C   UNL     1      30.973  -3.286  10.844  0.00  0.00    +0.000 A 
ATOM     12  C   UNL     1      29.837  -1.573  12.116  0.00  0.00    +0.000 A 
ATOM     14  C   UNL     1      30.000  -3.191   9.849  0.00  0.00    +0.000 A 
ATOM     15  C   UNL     1      28.865  -1.479  11.121  0.00  0.00    +0.000 A 
ATOM     17  C   UNL     1      28.947  -2.288   9.987  0.00  0.00    +0.000 A 
BRANCH  17   8
ATOM      5  O   UNL     1      26.829  -2.207   9.441  0.00  0.00    +0.000 OA
ATOM      8  N   UNL     1      27.989  -2.195   9.008  0.00  0.00    +0.000 NA
ENDBRANCH  17   8
ENDBRANCH   1   9
TORSDOF 3
ENDMDL
MODEL 8
REMARK VINA RESULT:      -6.5      2.609      3.423
REMARK  Name = 125483
REMARK  4 active torsions:
REMARK  status: ('A' for Active; 'I' for Inactive)
REMARK    1  A    between atoms: S_1  and  N_6
REMARK    2  A    between atoms: S_1  and  C_9
REMARK    3  A    between atoms: N_8  and  C_17
REMARK    4  A    between atoms: C_16  and  C_18
REMARK                            x       y       z     vdW  Elec       q    Type
REMARK                         _______ _______ _______ _____ _____    ______ ____
ROOT
ATOM      1  S   UNL     1      30.763  -1.787  11.662  0.00  0.00    +0.000 S 
ATOM      3  O   UNL     1      31.877  -1.020  11.117  0.00  0.00    +0.000 OA
ATOM      4  O   UNL     1      30.225  -1.438  12.971  0.00  0.00    +0.000 OA
ENDROOT
BRANCH   1   6
ATOM      2  O   UNL     1      33.029  -4.486  14.446  0.00  0.00    +0.000 OA
ATOM      6  N   UNL     1      31.167  -3.446  11.645  0.00  0.00    +0.000 N 
ATOM      7  N   UNL     1      32.371  -3.493  13.728  0.00  0.00    +0.000 NA
ATOM     10  C   UNL     1      31.907  -4.115  12.649  0.00  0.00    +0.000 A 
ATOM     13  C   UNL     1      32.226  -5.475  12.615  0.00  0.00    +0.000 A 
ATOM     16  C   UNL     1      32.935  -5.661  13.772  0.00  0.00    +0.000 A 
ATOM     18  C   UNL     1      33.580  -6.826  14.393  0.00  0.00    +0.000 C 
ATOM     19  H   UNL     1      30.934  -3.990  10.806  0.00  0.00    +0.000 HD
ENDBRANCH   1   6
BRANCH   1   9
ATOM      9  C   UNL     1      29.453  -1.742  10.508  0.00  0.00    +0.000 A 
ATOM     11  C   UNL     1      29.010  -2.922   9.910  0.00  0.00    +0.000 A 
ATOM     12  C   UNL     1      28.851  -0.526  10.183  0.00  0.00    +0.000 A 
ATOM     14  C   UNL     1      27.964  -2.885   8.987  0.00  0.00    +0.000 A 
ATOM     15  C   UNL     1      27.805  -0.490   9.262  0.00  0.00    +0.000 A 
ATOM     17  C   UNL     1      27.362  -1.670   8.664  0.00  0.00    +0.000 A 
BRANCH  17   8
ATOM      5  O   UNL     1      26.349  -0.639   7.020  0.00  0.00    +0.000 OA
ATOM      8  N   UNL     1      26.332  -1.634   7.756  0.00  0.00    +0.000 NA
ENDBRANCH  17   8
ENDBRANCH   1   9
TORSDOF 3
ENDMDL
MODEL 9
REMARK VINA RESULT:      -6.3      3.017      4.063
REMARK  Name = 125483
REMARK  4 active torsions:
REMARK  status: ('A' for Active; 'I' for Inactive)
REMARK    1  A    between atoms: S_1  and  N_6
REMARK    2  A    between atoms: S_1  and  C_9
REMARK    3  A    between atoms: N_8  and  C_17
REMARK    4  A    between atoms: C_16  and  C_18
REMARK                            x       y       z     vdW  Elec       q    Type
REMARK                         _______ _______ _______ _____ _____    ______ ____
ROOT
ATOM      1  S   UNL     1      30.581  -1.977  11.555  0.00  0.00    +0.000 S 
ATOM      3  O   UNL     1      30.151  -1.449  12.843  0.00  0.00    +0.000 OA
ATOM      4  O   UNL     1      30.925  -3.389  11.438  0.00  0.00    +0.000 OA
ENDROOT
BRANCH   1   6
ATOM      2  O   UNL     1      33.767  -2.614   8.454  0.00  0.00    +0.000 OA
ATOM      6  N   UNL     1      31.880  -1.035  10.970  0.00  0.00    +0.000 N 
ATOM      7  N   UNL     1      32.712  -2.617   9.360  0.00  0.00    +0.000 NA
ATOM     10  C   UNL     1      32.788  -1.434   9.962  0.00  0.00    +0.000 A 
ATOM     13  C   UNL     1      33.845  -0.645   9.498  0.00  0.00    +0.000 A 
ATOM     16  C   UNL     1      34.433  -1.435   8.546  0.00  0.00    +0.000 A 
ATOM     18  C   UNL     1      35.585  -1.261   7.653  0.00  0.00    +0.000 C 
ATOM     19  H   UNL     1      32.077  -0.143  11.441  0.00  0.00    +0.000 HD
ENDBRANCH   1   6
BRANCH   1   9
ATOM      9  C   UNL     1      29.342  -1.621  10.377  0.00  0.00    +0.000 A 
ATOM     11  C   UNL     1      29.140  -0.307   9.952  0.00  0.00    +0.000 A 
ATOM     12  C   UNL     1      28.552  -2.650   9.862  0.00  0.00    +0.000 A 
ATOM     14  C   UNL     1      28.150  -0.023   9.012  0.00  0.00    +0.000 A 
ATOM     15  C   UNL     1      27.563  -2.365   8.922  0.00  0.00    +0.000 A 
ATOM     17  C   UNL     1      27.362  -1.051   8.497  0.00  0.00    +0.000 A 
BRANCH  17   8
ATOM      5  O   UNL     1      26.750  -0.939   6.399  0.00  0.00    +0.000 OA
ATOM      8  N   UNL     1      26.387  -0.771   7.571  0.00  0.00    +0.000 NA
ENDBRANCH  17   8
ENDBRANCH   1   9
TORSDOF 3
ENDMDL
