MODEL 1
REMARK VINA RESULT:      -6.8      0.000      0.000
REMARK  Name = 2813558
REMARK  5 active torsions:
REMARK  status: ('A' for Active; 'I' for Inactive)
REMARK    1  A    between atoms: N_5  and  C_14
REMARK    2  A    between atoms: C_6  and  C_7
REMARK    3  A    between atoms: C_6  and  C_8
REMARK    4  A    between atoms: C_6  and  C_9
REMARK    5  A    between atoms: C_6  and  C_10
REMARK                            x       y       z     vdW  Elec       q    Type
REMARK                         _______ _______ _______ _____ _____    ______ ____
ROOT
ATOM      1  O   UNL     1      32.944  -3.254  15.817  0.00  0.00    +0.000 OA
ATOM      2  O   UNL     1      30.266  -1.542  12.982  0.00  0.00    +0.000 OA
ATOM      3  N   UNL     1      32.103  -2.757  14.828  0.00  0.00    +0.000 NA
ATOM      4  N   UNL     1      31.745  -3.303  12.530  0.00  0.00    +0.000 N 
ATOM      5  N   UNL     1      30.366  -2.511  10.857  0.00  0.00    +0.000 N 
ATOM      7  C   UNL     1      33.643  -4.227  15.254  0.00  0.00    +0.000 A 
ATOM     11  C   UNL     1      33.371  -4.451  13.986  0.00  0.00    +0.000 A 
ATOM     12  C   UNL     1      32.378  -3.488  13.743  0.00  0.00    +0.000 A 
ATOM     13  C   UNL     1      30.739  -2.363  12.203  0.00  0.00    +0.000 C 
ATOM     20  H   UNL     1      32.049  -3.928  11.788  0.00  0.00    +0.000 HD
ATOM     21  H   UNL     1      30.845  -3.237  10.330  0.00  0.00    +0.000 HD
ENDROOT
BRANCH   5  14
ATOM     14  C   UNL     1      29.400  -1.773  10.133  0.00  0.00    +0.000 A 
ATOM     15  C   UNL     1      28.177  -2.356   9.844  0.00  0.00    +0.000 A 
ATOM     16  C   UNL     1      29.696  -0.481   9.731  0.00  0.00    +0.000 A 
ATOM     17  C   UNL     1      27.224  -1.628   9.131  0.00  0.00    +0.000 A 
ATOM     18  C   UNL     1      28.743   0.248   9.018  0.00  0.00    +0.000 A 
ATOM     19  C   UNL     1      27.508  -0.326   8.719  0.00  0.00    +0.000 A 
ENDBRANCH   5  14
BRANCH   7   6
ATOM      6  C   UNL     1      34.644  -4.905  16.220  0.00  0.00    +0.000 C 
ATOM      8  C   UNL     1      34.798  -4.055  17.499  0.00  0.00    +0.000 C 
ATOM      9  C   UNL     1      36.020  -5.049  15.532  0.00  0.00    +0.000 C 
ATOM     10  C   UNL     1      34.205  -6.319  16.660  0.00  0.00    +0.000 C 
ENDBRANCH   7   6
TORSDOF 2
ENDMDL
MODEL 2
REMARK VINA RESULT:      -6.7      2.197      2.888
REMARK  Name = 2813558
REMARK  5 active torsions:
REMARK  status: ('A' for Active; 'I' for Inactive)
REMARK    1  A    between atoms: N_5  and  C_14
REMARK    2  A    between atoms: C_6  and  C_7
REMARK    3  A    between atoms: C_6  and  C_8
REMARK    4  A    between atoms: C_6  and  C_9
REMARK    5  A    between atoms: C_6  and  C_10
REMARK                            x       y       z     vdW  Elec       q    Type
REMARK                         _______ _______ _______ _____ _____    ______ ____
ROOT
ATOM      1  O   UNL     1      32.934  -1.192  14.914  0.00  0.00    +0.000 OA
ATOM      2  O   UNL     1      29.606  -1.375  12.263  0.00  0.00    +0.000 OA
ATOM      3  N   UNL     1      31.910  -1.265  13.978  0.00  0.00    +0.000 NA
ATOM      4  N   UNL     1      31.848  -1.576  11.610  0.00  0.00    +0.000 N 
ATOM      5  N   UNL     1      30.179  -1.704  10.021  0.00  0.00    +0.000 N 
ATOM      7  C   UNL     1      34.063  -1.340  14.239  0.00  0.00    +0.000 A 
ATOM     11  C   UNL     1      33.923  -1.505  12.941  0.00  0.00    +0.000 A 
ATOM     12  C   UNL     1      32.526  -1.452  12.806  0.00  0.00    +0.000 A 
ATOM     13  C   UNL     1      30.450  -1.535  11.388  0.00  0.00    +0.000 C 
ATOM     20  H   UNL     1      32.439  -1.715  10.795  0.00  0.00    +0.000 HD
ATOM     21  H   UNL     1      30.982  -1.828   9.409  0.00  0.00    +0.000 HD
ENDROOT
BRANCH   5  14
ATOM     14  C   UNL     1      28.919  -1.726   9.378  0.00  0.00    +0.000 A 
ATOM     15  C   UNL     1      28.450  -0.575   8.764  0.00  0.00    +0.000 A 
ATOM     16  C   UNL     1      28.179  -2.897   9.376  0.00  0.00    +0.000 A 
ATOM     17  C   UNL     1      27.208  -0.596   8.130  0.00  0.00    +0.000 A 
ATOM     18  C   UNL     1      26.936  -2.919   8.741  0.00  0.00    +0.000 A 
ATOM     19  C   UNL     1      26.452  -1.768   8.119  0.00  0.00    +0.000 A 
ENDBRANCH   5  14
BRANCH   7   6
ATOM      6  C   UNL     1      35.327  -1.285  15.131  0.00  0.00    +0.000 C 
ATOM      8  C   UNL     1      36.593  -1.410  14.256  0.00  0.00    +0.000 C 
ATOM      9  C   UNL     1      35.296  -2.441  16.156  0.00  0.00    +0.000 C 
ATOM     10  C   UNL     1      35.453   0.030  15.931  0.00  0.00    +0.000 C 
ENDBRANCH   7   6
TORSDOF 2
ENDMDL
MODEL 3
REMARK VINA RESULT:      -6.4      6.502      7.462
REMARK  Name = 2813558
REMARK  5 active torsions:
REMARK  status: ('A' for Active; 'I' for Inactive)
REMARK    1  A    between atoms: N_5  and  C_14
REMARK    2  A    between atoms: C_6  and  C_7
REMARK    3  A    between atoms: C_6  and  C_8
REMARK    4  A    between atoms: C_6  and  C_9
REMARK    5  A    between atoms: C_6  and  C_10
REMARK                            x       y       z     vdW  Elec       q    Type
REMARK                         _______ _______ _______ _____ _____    ______ ____
ROOT
ATOM      1  O   UNL     1      34.263   1.948   9.623  0.00  0.00    +0.000 OA
ATOM      2  O   UNL     1      30.871  -0.611   9.329  0.00  0.00    +0.000 OA
ATOM      3  N   UNL     1      33.109   1.185   9.485  0.00  0.00    +0.000 NA
ATOM      4  N   UNL     1      30.939   1.610   8.583  0.00  0.00    +0.000 N 
ATOM      5  N   UNL     1      29.002   0.380   8.333  0.00  0.00    +0.000 N 
ATOM      7  C   UNL     1      33.982   3.137   9.113  0.00  0.00    +0.000 A 
ATOM     11  C   UNL     1      32.760   3.271   8.642  0.00  0.00    +0.000 A 
ATOM     12  C   UNL     1      32.226   1.997   8.897  0.00  0.00    +0.000 A 
ATOM     13  C   UNL     1      30.324   0.354   8.804  0.00  0.00    +0.000 C 
ATOM     20  H   UNL     1      30.372   2.327   8.138  0.00  0.00    +0.000 HD
ATOM     21  H   UNL     1      28.683   1.252   7.919  0.00  0.00    +0.000 HD
ENDROOT
BRANCH   5  14
ATOM     14  C   UNL     1      28.046  -0.664   8.362  0.00  0.00    +0.000 A 
ATOM     15  C   UNL     1      27.780  -1.307   9.559  0.00  0.00    +0.000 A 
ATOM     16  C   UNL     1      27.395  -1.018   7.192  0.00  0.00    +0.000 A 
ATOM     17  C   UNL     1      26.837  -2.335   9.588  0.00  0.00    +0.000 A 
ATOM     18  C   UNL     1      26.452  -2.046   7.219  0.00  0.00    +0.000 A 
ATOM     19  C   UNL     1      26.173  -2.704   8.418  0.00  0.00    +0.000 A 
ENDBRANCH   5  14
BRANCH   7   6
ATOM      6  C   UNL     1      35.166   4.132   9.181  0.00  0.00    +0.000 C 
ATOM      8  C   UNL     1      34.635   5.581   9.156  0.00  0.00    +0.000 C 
ATOM      9  C   UNL     1      36.107   3.910   7.976  0.00  0.00    +0.000 C 
ATOM     10  C   UNL     1      36.019   3.980  10.460  0.00  0.00    +0.000 C 
ENDBRANCH   7   6
TORSDOF 2
ENDMDL
MODEL 4
REMARK VINA RESULT:      -6.3     19.358     20.281
REMARK  Name = 2813558
REMARK  5 active torsions:
REMARK  status: ('A' for Active; 'I' for Inactive)
REMARK    1  A    between atoms: N_5  and  C_14
REMARK    2  A    between atoms: C_6  and  C_7
REMARK    3  A    between atoms: C_6  and  C_8
REMARK    4  A    between atoms: C_6  and  C_9
REMARK    5  A    between atoms: C_6  and  C_10
REMARK                            x       y       z     vdW  Elec       q    Type
REMARK                         _______ _______ _______ _____ _____    ______ ____
ROOT
ATOM      1  O   UNL     1      17.453 -16.450  21.183  0.00  0.00    +0.000 OA
ATOM      2  O   UNL     1      16.191 -12.489  22.110  0.00  0.00    +0.000 OA
ATOM      3  N   UNL     1      17.128 -15.142  21.521  0.00  0.00    +0.000 NA
ATOM      4  N   UNL     1      18.316 -13.360  22.580  0.00  0.00    +0.000 N 
ATOM      5  N   UNL     1      17.820 -11.182  23.160  0.00  0.00    +0.000 N 
ATOM      7  C   UNL     1      18.704 -16.633  21.574  0.00  0.00    +0.000 A 
ATOM     11  C   UNL     1      19.271 -15.592  22.146  0.00  0.00    +0.000 A 
ATOM     12  C   UNL     1      18.230 -14.650  22.097  0.00  0.00    +0.000 A 
ATOM     13  C   UNL     1      17.321 -12.353  22.569  0.00  0.00    +0.000 C 
ATOM     20  H   UNL     1      19.213 -13.116  22.993  0.00  0.00    +0.000 HD
ATOM     21  H   UNL     1      18.779 -11.215  23.498  0.00  0.00    +0.000 HD
ENDROOT
BRANCH   5  14
ATOM     14  C   UNL     1      17.153  -9.948  23.349  0.00  0.00    +0.000 A 
ATOM     15  C   UNL     1      16.191  -9.842  24.341  0.00  0.00    +0.000 A 
ATOM     16  C   UNL     1      17.477  -8.872  22.540  0.00  0.00    +0.000 A 
ATOM     17  C   UNL     1      15.535  -8.625  24.527  0.00  0.00    +0.000 A 
ATOM     18  C   UNL     1      16.820  -7.655  22.726  0.00  0.00    +0.000 A 
ATOM     19  C   UNL     1      15.850  -7.532  23.720  0.00  0.00    +0.000 A 
ENDBRANCH   5  14
BRANCH   7   6
ATOM      6  C   UNL     1      19.243 -18.053  21.274  0.00  0.00    +0.000 C 
ATOM      8  C   UNL     1      20.484 -17.960  20.361  0.00  0.00    +0.000 C 
ATOM      9  C   UNL     1      18.152 -18.890  20.572  0.00  0.00    +0.000 C 
ATOM     10  C   UNL     1      19.665 -18.826  22.543  0.00  0.00    +0.000 C 
ENDBRANCH   7   6
TORSDOF 2
ENDMDL
MODEL 5
REMARK VINA RESULT:      -6.2      5.937      7.969
REMARK  Name = 2813558
REMARK  5 active torsions:
REMARK  status: ('A' for Active; 'I' for Inactive)
REMARK    1  A    between atoms: N_5  and  C_14
REMARK    2  A    between atoms: C_6  and  C_7
REMARK    3  A    between atoms: C_6  and  C_8
REMARK    4  A    between atoms: C_6  and  C_9
REMARK    5  A    between atoms: C_6  and  C_10
REMARK                            x       y       z     vdW  Elec       q    Type
REMARK                         _______ _______ _______ _____ _____    ______ ____
ROOT
ATOM      1  O   UNL     1      30.655  -0.702   9.569  0.00  0.00    +0.000 OA
ATOM      2  O   UNL     1      32.382   3.061   8.573  0.00  0.00    +0.000 OA
ATOM      3  N   UNL     1      31.304   0.486   9.256  0.00  0.00    +0.000 NA
ATOM      4  N   UNL     1      33.599   1.137   9.129  0.00  0.00    +0.000 N 
ATOM      5  N   UNL     1      34.719   3.088   8.616  0.00  0.00    +0.000 N 
ATOM      7  C   UNL     1      31.605  -1.585   9.833  0.00  0.00    +0.000 A 
ATOM     11  C   UNL     1      32.837  -1.129   9.735  0.00  0.00    +0.000 A 
ATOM     12  C   UNL     1      32.607   0.206   9.363  0.00  0.00    +0.000 A 
ATOM     13  C   UNL     1      33.455   2.494   8.752  0.00  0.00    +0.000 C 
ATOM     20  H   UNL     1      34.548   0.790   9.246  0.00  0.00    +0.000 HD
ATOM     21  H   UNL     1      35.524   2.494   8.796  0.00  0.00    +0.000 HD
ENDROOT
BRANCH   5  14
ATOM     14  C   UNL     1      35.020   4.423   8.255  0.00  0.00    +0.000 A 
ATOM     15  C   UNL     1      34.964   5.416   9.220  0.00  0.00    +0.000 A 
ATOM     16  C   UNL     1      35.367   4.709   6.945  0.00  0.00    +0.000 A 
ATOM     17  C   UNL     1      35.261   6.731   8.865  0.00  0.00    +0.000 A 
ATOM     18  C   UNL     1      35.665   6.026   6.589  0.00  0.00    +0.000 A 
ATOM     19  C   UNL     1      35.612   7.036   7.550  0.00  0.00    +0.000 A 
ENDBRANCH   5  14
BRANCH   7   6
ATOM      6  C   UNL     1      31.062  -2.985  10.206  0.00  0.00    +0.000 C 
ATOM      8  C   UNL     1      29.561  -3.076   9.855  0.00  0.00    +0.000 C 
ATOM      9  C   UNL     1      31.250  -3.234  11.719  0.00  0.00    +0.000 C 
ATOM     10  C   UNL     1      31.776  -4.135   9.462  0.00  0.00    +0.000 C 
ENDBRANCH   7   6
TORSDOF 2
ENDMDL
MODEL 6
REMARK VINA RESULT:      -6.1      1.783      2.361
REMARK  Name = 2813558
REMARK  5 active torsions:
REMARK  status: ('A' for Active; 'I' for Inactive)
REMARK    1  A    between atoms: N_5  and  C_14
REMARK    2  A    between atoms: C_6  and  C_7
REMARK    3  A    between atoms: C_6  and  C_8
REMARK    4  A    between atoms: C_6  and  C_9
REMARK    5  A    between atoms: C_6  and  C_10
REMARK                            x       y       z     vdW  Elec       q    Type
REMARK                         _______ _______ _______ _____ _____    ______ ____
ROOT
ATOM      1  O   UNL     1      33.687  -3.678  12.995  0.00  0.00    +0.000 OA
ATOM      2  O   UNL     1      30.581  -3.259  10.112  0.00  0.00    +0.000 OA
ATOM      3  N   UNL     1      32.636  -3.474  12.109  0.00  0.00    +0.000 NA
ATOM      4  N   UNL     1      30.744  -2.015  12.092  0.00  0.00    +0.000 N 
ATOM      5  N   UNL     1      28.982  -1.641  10.649  0.00  0.00    +0.000 N 
ATOM      7  C   UNL     1      33.496  -2.835  13.997  0.00  0.00    +0.000 A 
ATOM     11  C   UNL     1      32.426  -2.075  13.894  0.00  0.00    +0.000 A 
ATOM     12  C   UNL     1      31.896  -2.511  12.668  0.00  0.00    +0.000 A 
ATOM     13  C   UNL     1      30.145  -2.396  10.867  0.00  0.00    +0.000 C 
ATOM     20  H   UNL     1      30.278  -1.284  12.624  0.00  0.00    +0.000 HD
ATOM     21  H   UNL     1      28.742  -0.958  11.364  0.00  0.00    +0.000 HD
ENDROOT
BRANCH   5  14
ATOM     14  C   UNL     1      28.091  -1.708   9.551  0.00  0.00    +0.000 A 
ATOM     15  C   UNL     1      27.443  -2.901   9.275  0.00  0.00    +0.000 A 
ATOM     16  C   UNL     1      27.884  -0.579   8.776  0.00  0.00    +0.000 A 
ATOM     17  C   UNL     1      26.565  -2.968   8.194  0.00  0.00    +0.000 A 
ATOM     18  C   UNL     1      27.005  -0.645   7.694  0.00  0.00    +0.000 A 
ATOM     19  C   UNL     1      26.346  -1.839   7.404  0.00  0.00    +0.000 A 
ENDBRANCH   5  14
BRANCH   7   6
ATOM      6  C   UNL     1      34.585  -2.923  15.094  0.00  0.00    +0.000 C 
ATOM      8  C   UNL     1      34.093  -3.818  16.251  0.00  0.00    +0.000 C 
ATOM      9  C   UNL     1      34.897  -1.511  15.636  0.00  0.00    +0.000 C 
ATOM     10  C   UNL     1      35.915  -3.521  14.586  0.00  0.00    +0.000 C 
ENDBRANCH   7   6
TORSDOF 2
ENDMDL
MODEL 7
REMARK VINA RESULT:      -6.1      5.912      7.663
REMARK  Name = 2813558
REMARK  5 active torsions:
REMARK  status: ('A' for Active; 'I' for Inactive)
REMARK    1  A    between atoms: N_5  and  C_14
REMARK    2  A    between atoms: C_6  and  C_7
REMARK    3  A    between atoms: C_6  and  C_8
REMARK    4  A    between atoms: C_6  and  C_9
REMARK    5  A    between atoms: C_6  and  C_10
REMARK                            x       y       z     vdW  Elec       q    Type
REMARK                         _______ _______ _______ _____ _____    ______ ____
ROOT
ATOM      1  O   UNL     1      35.750   1.413   8.711  0.00  0.00    +0.000 OA
ATOM      2  O   UNL     1      32.080  -0.677   9.258  0.00  0.00    +0.000 OA
ATOM      3  N   UNL     1      34.507   0.812   8.870  0.00  0.00    +0.000 NA
ATOM      4  N   UNL     1      32.256   1.595   8.709  0.00  0.00    +0.000 N 
ATOM      5  N   UNL     1      30.170   0.639   8.963  0.00  0.00    +0.000 N 
ATOM      7  C   UNL     1      35.513   2.680   8.408  0.00  0.00    +0.000 A 
ATOM     11  C   UNL     1      34.241   3.012   8.343  0.00  0.00    +0.000 A 
ATOM     12  C   UNL     1      33.621   1.788   8.646  0.00  0.00    +0.000 A 
ATOM     13  C   UNL     1      31.554   0.402   9.004  0.00  0.00    +0.000 C 
ATOM     20  H   UNL     1      31.696   2.422   8.517  0.00  0.00    +0.000 HD
ATOM     21  H   UNL     1      29.877   1.586   8.737  0.00  0.00    +0.000 HD
ENDROOT
BRANCH   5  14
ATOM     14  C   UNL     1      29.121  -0.281   9.197  0.00  0.00    +0.000 A 
ATOM     15  C   UNL     1      28.202  -0.532   8.191  0.00  0.00    +0.000 A 
ATOM     16  C   UNL     1      29.034  -0.911  10.427  0.00  0.00    +0.000 A 
ATOM     17  C   UNL     1      27.168  -1.439   8.421  0.00  0.00    +0.000 A 
ATOM     18  C   UNL     1      28.000  -1.820  10.658  0.00  0.00    +0.000 A 
ATOM     19  C   UNL     1      27.067  -2.083   9.654  0.00  0.00    +0.000 A 
ENDBRANCH   5  14
BRANCH   7   6
ATOM      6  C   UNL     1      36.799   3.514   8.192  0.00  0.00    +0.000 C 
ATOM      8  C   UNL     1      37.326   3.303   6.757  0.00  0.00    +0.000 C 
ATOM      9  C   UNL     1      37.881   3.081   9.205  0.00  0.00    +0.000 C 
ATOM     10  C   UNL     1      36.580   5.031   8.380  0.00  0.00    +0.000 C 
ENDBRANCH   7   6
TORSDOF 2
ENDMDL
MODEL 8
REMARK VINA RESULT:      -6.1      2.477      3.019
REMARK  Name = 2813558
REMARK  5 active torsions:
REMARK  status: ('A' for Active; 'I' for Inactive)
REMARK    1  A    between atoms: N_5  and  C_14
REMARK    2  A    between atoms: C_6  and  C_7
REMARK    3  A    between atoms: C_6  and  C_8
REMARK    4  A    between atoms: C_6  and  C_9
REMARK    5  A    between atoms: C_6  and  C_10
REMARK                            x       y       z     vdW  Elec       q    Type
REMARK                         _______ _______ _______ _____ _____    ______ ____
ROOT
ATOM      1  O   UNL     1      34.461  -2.283  16.267  0.00  0.00    +0.000 OA
ATOM      2  O   UNL     1      31.184  -2.791  13.596  0.00  0.00    +0.000 OA
ATOM      3  N   UNL     1      33.431  -2.384  15.339  0.00  0.00    +0.000 NA
ATOM      4  N   UNL     1      32.968  -1.311  13.256  0.00  0.00    +0.000 N 
ATOM      5  N   UNL     1      31.281  -1.445  11.687  0.00  0.00    +0.000 N 
ATOM      7  C   UNL     1      35.300  -1.376  15.793  0.00  0.00    +0.000 A 
ATOM     11  C   UNL     1      34.956  -0.844  14.639  0.00  0.00    +0.000 A 
ATOM     12  C   UNL     1      33.749  -1.514  14.376  0.00  0.00    +0.000 A 
ATOM     13  C   UNL     1      31.747  -1.940  12.915  0.00  0.00    +0.000 C 
ATOM     20  H   UNL     1      33.328  -0.620  12.602  0.00  0.00    +0.000 HD
ATOM     21  H   UNL     1      31.855  -0.739  11.233  0.00  0.00    +0.000 HD
ENDROOT
BRANCH   5  14
ATOM     14  C   UNL     1      30.102  -1.806  10.992  0.00  0.00    +0.000 A 
ATOM     15  C   UNL     1      28.938  -1.089  11.213  0.00  0.00    +0.000 A 
ATOM     16  C   UNL     1      30.138  -2.869  10.104  0.00  0.00    +0.000 A 
ATOM     17  C   UNL     1      27.776  -1.444  10.528  0.00  0.00    +0.000 A 
ATOM     18  C   UNL     1      28.976  -3.225   9.418  0.00  0.00    +0.000 A 
ATOM     19  C   UNL     1      27.796  -2.512   9.630  0.00  0.00    +0.000 A 
ENDBRANCH   5  14
BRANCH   7   6
ATOM      6  C   UNL     1      36.524  -1.130  16.707  0.00  0.00    +0.000 C 
ATOM      8  C   UNL     1      37.303   0.111  16.218  0.00  0.00    +0.000 C 
ATOM      9  C   UNL     1      37.455  -2.362  16.680  0.00  0.00    +0.000 C 
ATOM     10  C   UNL     1      36.143  -0.878  18.182  0.00  0.00    +0.000 C 
ENDBRANCH   7   6
TORSDOF 2
ENDMDL
MODEL 9
REMARK VINA RESULT:      -6.0     17.623     19.355
REMARK  Name = 2813558
REMARK  5 active torsions:
REMARK  status: ('A' for Active; 'I' for Inactive)
REMARK    1  A    between atoms: N_5  and  C_14
REMARK    2  A    between atoms: C_6  and  C_7
REMARK    3  A    between atoms: C_6  and  C_8
REMARK    4  A    between atoms: C_6  and  C_9
REMARK    5  A    between atoms: C_6  and  C_10
REMARK                            x       y       z     vdW  Elec       q    Type
REMARK                         _______ _______ _______ _____ _____    ______ ____
ROOT
ATOM      1  O   UNL     1      16.618  -9.709  24.348  0.00  0.00    +0.000 OA
ATOM      2  O   UNL     1      19.869  -7.710  26.238  0.00  0.00    +0.000 OA
ATOM      3  N   UNL     1      17.670  -8.988  24.900  0.00  0.00    +0.000 NA
ATOM      4  N   UNL     1      18.727  -6.917  24.351  0.00  0.00    +0.000 N 
ATOM      5  N   UNL     1      20.468  -5.686  25.234  0.00  0.00    +0.000 N 
ATOM      7  C   UNL     1      16.191  -9.006  23.311  0.00  0.00    +0.000 A 
ATOM     11  C   UNL     1      16.838  -7.881  23.093  0.00  0.00    +0.000 A 
ATOM     12  C   UNL     1      17.783  -7.900  24.132  0.00  0.00    +0.000 A 
ATOM     13  C   UNL     1      19.709  -6.859  25.370  0.00  0.00    +0.000 C 
ATOM     20  H   UNL     1      18.702  -6.144  23.692  0.00  0.00    +0.000 HD
ATOM     21  H   UNL     1      20.220  -5.069  24.464  0.00  0.00    +0.000 HD
ENDROOT
BRANCH   5  14
ATOM     14  C   UNL     1      21.544  -5.246  26.041  0.00  0.00    +0.000 A 
ATOM     15  C   UNL     1      22.789  -5.836  25.893  0.00  0.00    +0.000 A 
ATOM     16  C   UNL     1      21.330  -4.233  26.962  0.00  0.00    +0.000 A 
ATOM     17  C   UNL     1      23.849  -5.402  26.687  0.00  0.00    +0.000 A 
ATOM     18  C   UNL     1      22.392  -3.798  27.757  0.00  0.00    +0.000 A 
ATOM     19  C   UNL     1      23.650  -4.383  27.619  0.00  0.00    +0.000 A 
ENDBRANCH   5  14
BRANCH   7   6
ATOM      6  C   UNL     1      15.006  -9.665  22.565  0.00  0.00    +0.000 C 
ATOM      8  C   UNL     1      14.014 -10.267  23.583  0.00  0.00    +0.000 C 
ATOM      9  C   UNL     1      15.528 -10.783  21.636  0.00  0.00    +0.000 C 
ATOM     10  C   UNL     1      14.213  -8.674  21.684  0.00  0.00    +0.000 C 
ENDBRANCH   7   6
TORSDOF 2
ENDMDL
