MODEL 1
REMARK VINA RESULT:      -6.7      0.000      0.000
REMARK  Name = 577223
REMARK  6 active torsions:
REMARK  status: ('A' for Active; 'I' for Inactive)
REMARK    1  A    between atoms: S_1  and  N_5
REMARK    2  A    between atoms: S_1  and  C_7
REMARK    3  A    between atoms: C_8  and  C_13
REMARK    4  A    between atoms: C_9  and  C_14
REMARK    5  A    between atoms: C_10  and  C_15
REMARK    6  A    between atoms: C_18  and  C_19
REMARK                            x       y       z     vdW  Elec       q    Type
REMARK                         _______ _______ _______ _____ _____    ______ ____
ROOT
ATOM      1  S   UNL     1      30.769  -2.078  11.639  0.00  0.00    +0.000 S 
ATOM      2  O   UNL     1      31.562  -1.239  10.752  0.00  0.00    +0.000 OA
ATOM      3  O   UNL     1      30.351  -1.550  12.929  0.00  0.00    +0.000 OA
ENDROOT
BRANCH   1   7
ATOM      7  C   UNL     1      31.676  -3.555  11.913  0.00  0.00    +0.000 A 
ATOM      8  C   UNL     1      32.004  -3.941  13.212  0.00  0.00    +0.000 A 
ATOM      9  C   UNL     1      32.068  -4.344  10.830  0.00  0.00    +0.000 A 
ATOM     10  C   UNL     1      33.118  -5.903  12.347  0.00  0.00    +0.000 A 
ATOM     11  C   UNL     1      32.725  -5.115  13.429  0.00  0.00    +0.000 A 
ATOM     12  C   UNL     1      32.788  -5.518  11.049  0.00  0.00    +0.000 A 
ATOM     13  C   UNL     1      31.603  -3.122  14.396  0.00  0.00    +0.000 C 
ATOM     14  C   UNL     1      31.733  -3.962   9.426  0.00  0.00    +0.000 C 
ATOM     15  C   UNL     1      33.887  -7.159  12.580  0.00  0.00    +0.000 C 
ENDBRANCH   1   7
BRANCH   1   5
ATOM      4  O   UNL     1      27.803   0.162   9.352  0.00  0.00    +0.000 OA
ATOM      5  N   UNL     1      29.396  -2.639  10.767  0.00  0.00    +0.000 N 
ATOM      6  N   UNL     1      28.655  -0.398  10.296  0.00  0.00    +0.000 NA
ATOM     16  C   UNL     1      28.632  -1.684  10.011  0.00  0.00    +0.000 A 
ATOM     17  C   UNL     1      27.823  -2.028   8.940  0.00  0.00    +0.000 A 
ATOM     18  C   UNL     1      27.315  -0.818   8.551  0.00  0.00    +0.000 A 
ATOM     19  C   UNL     1      26.392  -0.398   7.490  0.00  0.00    +0.000 C 
ATOM     20  H   UNL     1      29.317  -3.634  10.522  0.00  0.00    +0.000 HD
ENDBRANCH   1   5
TORSDOF 2
ENDMDL
MODEL 2
REMARK VINA RESULT:      -6.7      0.102      1.979
REMARK  Name = 577223
REMARK  6 active torsions:
REMARK  status: ('A' for Active; 'I' for Inactive)
REMARK    1  A    between atoms: S_1  and  N_5
REMARK    2  A    between atoms: S_1  and  C_7
REMARK    3  A    between atoms: C_8  and  C_13
REMARK    4  A    between atoms: C_9  and  C_14
REMARK    5  A    between atoms: C_10  and  C_15
REMARK    6  A    between atoms: C_18  and  C_19
REMARK                            x       y       z     vdW  Elec       q    Type
REMARK                         _______ _______ _______ _____ _____    ______ ____
ROOT
ATOM      1  S   UNL     1      30.827  -2.049  11.686  0.00  0.00    +0.000 S 
ATOM      2  O   UNL     1      31.615  -1.243  10.766  0.00  0.00    +0.000 OA
ATOM      3  O   UNL     1      30.474  -1.501  12.987  0.00  0.00    +0.000 OA
ENDROOT
BRANCH   1   7
ATOM      7  C   UNL     1      31.691  -3.556  11.937  0.00  0.00    +0.000 A 
ATOM      8  C   UNL     1      32.056  -4.342  10.844  0.00  0.00    +0.000 A 
ATOM      9  C   UNL     1      32.014  -3.967  13.231  0.00  0.00    +0.000 A 
ATOM     10  C   UNL     1      33.064  -5.951  12.338  0.00  0.00    +0.000 A 
ATOM     11  C   UNL     1      32.743  -5.539  11.044  0.00  0.00    +0.000 A 
ATOM     12  C   UNL     1      32.701  -5.165  13.430  0.00  0.00    +0.000 A 
ATOM     13  C   UNL     1      31.727  -3.934   9.445  0.00  0.00    +0.000 C 
ATOM     14  C   UNL     1      31.640  -3.152  14.425  0.00  0.00    +0.000 C 
ATOM     15  C   UNL     1      33.799  -7.230  12.552  0.00  0.00    +0.000 C 
ENDBRANCH   1   7
BRANCH   1   5
ATOM      4  O   UNL     1      27.942   0.258   9.363  0.00  0.00    +0.000 OA
ATOM      5  N   UNL     1      29.404  -2.568  10.868  0.00  0.00    +0.000 N 
ATOM      6  N   UNL     1      28.782  -0.310  10.313  0.00  0.00    +0.000 NA
ATOM     16  C   UNL     1      28.679  -1.603  10.086  0.00  0.00    +0.000 A 
ATOM     17  C   UNL     1      27.828  -1.945   9.048  0.00  0.00    +0.000 A 
ATOM     18  C   UNL     1      27.380  -0.726   8.616  0.00  0.00    +0.000 A 
ATOM     19  C   UNL     1      26.459  -0.299   7.556  0.00  0.00    +0.000 C 
ATOM     20  H   UNL     1      29.263  -3.566  10.670  0.00  0.00    +0.000 HD
ENDBRANCH   1   5
TORSDOF 2
ENDMDL
MODEL 3
REMARK VINA RESULT:      -6.3     18.512     20.024
REMARK  Name = 577223
REMARK  6 active torsions:
REMARK  status: ('A' for Active; 'I' for Inactive)
REMARK    1  A    between atoms: S_1  and  N_5
REMARK    2  A    between atoms: S_1  and  C_7
REMARK    3  A    between atoms: C_8  and  C_13
REMARK    4  A    between atoms: C_9  and  C_14
REMARK    5  A    between atoms: C_10  and  C_15
REMARK    6  A    between atoms: C_18  and  C_19
REMARK                            x       y       z     vdW  Elec       q    Type
REMARK                         _______ _______ _______ _____ _____    ______ ____
ROOT
ATOM      1  S   UNL     1      16.971  -8.277  22.703  0.00  0.00    +0.000 S 
ATOM      2  O   UNL     1      17.870  -7.299  23.297  0.00  0.00    +0.000 OA
ATOM      3  O   UNL     1      16.289  -7.951  21.459  0.00  0.00    +0.000 OA
ENDROOT
BRANCH   1   7
ATOM      7  C   UNL     1      15.760  -8.676  23.909  0.00  0.00    +0.000 A 
ATOM      8  C   UNL     1      14.534  -9.212  23.515  0.00  0.00    +0.000 A 
ATOM      9  C   UNL     1      16.024  -8.458  25.262  0.00  0.00    +0.000 A 
ATOM     10  C   UNL     1      13.835  -9.310  25.826  0.00  0.00    +0.000 A 
ATOM     11  C   UNL     1      13.571  -9.529  24.474  0.00  0.00    +0.000 A 
ATOM     12  C   UNL     1      15.061  -8.775  26.219  0.00  0.00    +0.000 A 
ATOM     13  C   UNL     1      14.214  -9.459  22.077  0.00  0.00    +0.000 C 
ATOM     14  C   UNL     1      17.326  -7.887  25.720  0.00  0.00    +0.000 C 
ATOM     15  C   UNL     1      12.807  -9.649  26.851  0.00  0.00    +0.000 C 
ENDBRANCH   1   7
BRANCH   1   5
ATOM      4  O   UNL     1      20.742  -9.105  20.671  0.00  0.00    +0.000 OA
ATOM      5  N   UNL     1      17.825  -9.761  22.527  0.00  0.00    +0.000 N 
ATOM      6  N   UNL     1      19.455  -8.763  21.064  0.00  0.00    +0.000 NA
ATOM     16  C   UNL     1      19.111  -9.734  21.885  0.00  0.00    +0.000 A 
ATOM     17  C   UNL     1      20.079 -10.707  22.072  0.00  0.00    +0.000 A 
ATOM     18  C   UNL     1      21.103 -10.265  21.278  0.00  0.00    +0.000 A 
ATOM     19  C   UNL     1      22.445 -10.775  20.973  0.00  0.00    +0.000 C 
ATOM     20  H   UNL     1      17.596 -10.558  23.133  0.00  0.00    +0.000 HD
ENDBRANCH   1   5
TORSDOF 2
ENDMDL
MODEL 4
REMARK VINA RESULT:      -6.1     19.728     21.114
REMARK  Name = 577223
REMARK  6 active torsions:
REMARK  status: ('A' for Active; 'I' for Inactive)
REMARK    1  A    between atoms: S_1  and  N_5
REMARK    2  A    between atoms: S_1  and  C_7
REMARK    3  A    between atoms: C_8  and  C_13
REMARK    4  A    between atoms: C_9  and  C_14
REMARK    5  A    between atoms: C_10  and  C_15
REMARK    6  A    between atoms: C_18  and  C_19
REMARK                            x       y       z     vdW  Elec       q    Type
REMARK                         _______ _______ _______ _____ _____    ______ ____
ROOT
ATOM      1  S   UNL     1      17.046  -8.931  22.739  0.00  0.00    +0.000 S 
ATOM      2  O   UNL     1      17.645  -7.623  22.955  0.00  0.00    +0.000 OA
ATOM      3  O   UNL     1      16.510  -9.258  21.426  0.00  0.00    +0.000 OA
ENDROOT
BRANCH   1   7
ATOM      7  C   UNL     1      15.765  -9.124  23.923  0.00  0.00    +0.000 A 
ATOM      8  C   UNL     1      16.056  -9.048  25.285  0.00  0.00    +0.000 A 
ATOM      9  C   UNL     1      14.454  -9.353  23.501  0.00  0.00    +0.000 A 
ATOM     10  C   UNL     1      13.727  -9.431  25.803  0.00  0.00    +0.000 A 
ATOM     11  C   UNL     1      15.037  -9.201  26.225  0.00  0.00    +0.000 A 
ATOM     12  C   UNL     1      13.437  -9.506  24.442  0.00  0.00    +0.000 A 
ATOM     13  C   UNL     1      17.446  -8.805  25.774  0.00  0.00    +0.000 C 
ATOM     14  C   UNL     1      14.106  -9.439  22.051  0.00  0.00    +0.000 C 
ATOM     15  C   UNL     1      12.638  -9.594  26.809  0.00  0.00    +0.000 C 
ENDBRANCH   1   7
BRANCH   1   5
ATOM      4  O   UNL     1      16.917 -13.262  22.224  0.00  0.00    +0.000 OA
ATOM      5  N   UNL     1      18.181 -10.132  23.220  0.00  0.00    +0.000 N 
ATOM      6  N   UNL     1      16.724 -11.922  22.537  0.00  0.00    +0.000 NA
ATOM     16  C   UNL     1      17.935 -11.495  22.834  0.00  0.00    +0.000 A 
ATOM     17  C   UNL     1      18.929 -12.455  22.742  0.00  0.00    +0.000 A 
ATOM     18  C   UNL     1      18.234 -13.568  22.349  0.00  0.00    +0.000 A 
ATOM     19  C   UNL     1      18.616 -14.953  22.054  0.00  0.00    +0.000 C 
ATOM     20  H   UNL     1      19.139  -9.859  23.472  0.00  0.00    +0.000 HD
ENDBRANCH   1   5
TORSDOF 2
ENDMDL
MODEL 5
REMARK VINA RESULT:      -6.1      3.608      5.755
REMARK  Name = 577223
REMARK  6 active torsions:
REMARK  status: ('A' for Active; 'I' for Inactive)
REMARK    1  A    between atoms: S_1  and  N_5
REMARK    2  A    between atoms: S_1  and  C_7
REMARK    3  A    between atoms: C_8  and  C_13
REMARK    4  A    between atoms: C_9  and  C_14
REMARK    5  A    between atoms: C_10  and  C_15
REMARK    6  A    between atoms: C_18  and  C_19
REMARK                            x       y       z     vdW  Elec       q    Type
REMARK                         _______ _______ _______ _____ _____    ______ ____
ROOT
ATOM      1  S   UNL     1      32.063  -1.949  13.412  0.00  0.00    +0.000 S 
ATOM      2  O   UNL     1      32.294  -2.591  14.697  0.00  0.00    +0.000 OA
ATOM      3  O   UNL     1      30.756  -1.375  13.130  0.00  0.00    +0.000 OA
ENDROOT
BRANCH   1   7
ATOM      7  C   UNL     1      32.432  -3.125  12.164  0.00  0.00    +0.000 A 
ATOM      8  C   UNL     1      33.566  -3.930  12.275  0.00  0.00    +0.000 A 
ATOM      9  C   UNL     1      31.589  -3.256  11.059  0.00  0.00    +0.000 A 
ATOM     10  C   UNL     1      33.017  -4.995  10.177  0.00  0.00    +0.000 A 
ATOM     11  C   UNL     1      33.858  -4.864  11.282  0.00  0.00    +0.000 A 
ATOM     12  C   UNL     1      31.883  -4.192  10.066  0.00  0.00    +0.000 A 
ATOM     13  C   UNL     1      34.491  -3.817  13.443  0.00  0.00    +0.000 C 
ATOM     14  C   UNL     1      30.366  -2.413  10.906  0.00  0.00    +0.000 C 
ATOM     15  C   UNL     1      33.329  -5.995   9.116  0.00  0.00    +0.000 C 
ENDBRANCH   1   7
BRANCH   1   5
ATOM      4  O   UNL     1      33.450   1.202  16.093  0.00  0.00    +0.000 OA
ATOM      5  N   UNL     1      33.284  -0.759  13.176  0.00  0.00    +0.000 N 
ATOM      6  N   UNL     1      32.763   0.332  15.257  0.00  0.00    +0.000 NA
ATOM     16  C   UNL     1      33.611   0.108  14.275  0.00  0.00    +0.000 A 
ATOM     17  C   UNL     1      34.824   0.768  14.392  0.00  0.00    +0.000 A 
ATOM     18  C   UNL     1      34.676   1.455  15.568  0.00  0.00    +0.000 A 
ATOM     19  C   UNL     1      35.542   2.363  16.330  0.00  0.00    +0.000 C 
ATOM     20  H   UNL     1      33.970  -0.874  12.420  0.00  0.00    +0.000 HD
ENDBRANCH   1   5
TORSDOF 2
ENDMDL
MODEL 6
REMARK VINA RESULT:      -6.1     19.612     21.060
REMARK  Name = 577223
REMARK  6 active torsions:
REMARK  status: ('A' for Active; 'I' for Inactive)
REMARK    1  A    between atoms: S_1  and  N_5
REMARK    2  A    between atoms: S_1  and  C_7
REMARK    3  A    between atoms: C_8  and  C_13
REMARK    4  A    between atoms: C_9  and  C_14
REMARK    5  A    between atoms: C_10  and  C_15
REMARK    6  A    between atoms: C_18  and  C_19
REMARK                            x       y       z     vdW  Elec       q    Type
REMARK                         _______ _______ _______ _____ _____    ______ ____
ROOT
ATOM      1  S   UNL     1      17.336  -9.128  22.629  0.00  0.00    +0.000 S 
ATOM      2  O   UNL     1      18.020  -7.871  22.899  0.00  0.00    +0.000 OA
ATOM      3  O   UNL     1      16.864  -9.404  21.281  0.00  0.00    +0.000 OA
ENDROOT
BRANCH   1   7
ATOM      7  C   UNL     1      15.970  -9.227  23.725  0.00  0.00    +0.000 A 
ATOM      8  C   UNL     1      14.669  -9.230  23.221  0.00  0.00    +0.000 A 
ATOM      9  C   UNL     1      16.184  -9.303  25.103  0.00  0.00    +0.000 A 
ATOM     10  C   UNL     1      13.797  -9.383  25.469  0.00  0.00    +0.000 A 
ATOM     11  C   UNL     1      13.583  -9.308  24.093  0.00  0.00    +0.000 A 
ATOM     12  C   UNL     1      15.097  -9.381  25.973  0.00  0.00    +0.000 A 
ATOM     13  C   UNL     1      14.400  -9.148  21.754  0.00  0.00    +0.000 C 
ATOM     14  C   UNL     1      17.562  -9.303  25.679  0.00  0.00    +0.000 C 
ATOM     15  C   UNL     1      12.637  -9.468  26.401  0.00  0.00    +0.000 C 
ENDBRANCH   1   7
BRANCH   1   5
ATOM      4  O   UNL     1      16.885 -13.435  22.092  0.00  0.00    +0.000 OA
ATOM      5  N   UNL     1      18.341 -10.417  23.169  0.00  0.00    +0.000 N 
ATOM      6  N   UNL     1      16.784 -12.083  22.399  0.00  0.00    +0.000 NA
ATOM     16  C   UNL     1      18.007 -11.755  22.765  0.00  0.00    +0.000 A 
ATOM     17  C   UNL     1      18.923 -12.793  22.726  0.00  0.00    +0.000 A 
ATOM     18  C   UNL     1      18.163 -13.846  22.291  0.00  0.00    +0.000 A 
ATOM     19  C   UNL     1      18.448 -15.258  22.012  0.00  0.00    +0.000 C 
ATOM     20  H   UNL     1      19.302 -10.222  23.476  0.00  0.00    +0.000 HD
ENDBRANCH   1   5
TORSDOF 2
ENDMDL
MODEL 7
REMARK VINA RESULT:      -6.1      3.592      5.877
REMARK  Name = 577223
REMARK  6 active torsions:
REMARK  status: ('A' for Active; 'I' for Inactive)
REMARK    1  A    between atoms: S_1  and  N_5
REMARK    2  A    between atoms: S_1  and  C_7
REMARK    3  A    between atoms: C_8  and  C_13
REMARK    4  A    between atoms: C_9  and  C_14
REMARK    5  A    between atoms: C_10  and  C_15
REMARK    6  A    between atoms: C_18  and  C_19
REMARK                            x       y       z     vdW  Elec       q    Type
REMARK                         _______ _______ _______ _____ _____    ______ ____
ROOT
ATOM      1  S   UNL     1      32.018  -1.934  13.403  0.00  0.00    +0.000 S 
ATOM      2  O   UNL     1      32.255  -2.551  14.700  0.00  0.00    +0.000 OA
ATOM      3  O   UNL     1      30.704  -1.382  13.110  0.00  0.00    +0.000 OA
ENDROOT
BRANCH   1   7
ATOM      7  C   UNL     1      32.402  -3.129  12.177  0.00  0.00    +0.000 A 
ATOM      8  C   UNL     1      31.591  -3.257  11.049  0.00  0.00    +0.000 A 
ATOM      9  C   UNL     1      33.521  -3.950  12.329  0.00  0.00    +0.000 A 
ATOM     10  C   UNL     1      33.014  -5.029  10.227  0.00  0.00    +0.000 A 
ATOM     11  C   UNL     1      31.897  -4.207  10.075  0.00  0.00    +0.000 A 
ATOM     12  C   UNL     1      33.826  -4.899  11.354  0.00  0.00    +0.000 A 
ATOM     13  C   UNL     1      30.386  -2.397  10.852  0.00  0.00    +0.000 C 
ATOM     14  C   UNL     1      34.412  -3.840  13.522  0.00  0.00    +0.000 C 
ATOM     15  C   UNL     1      33.342  -6.043   9.185  0.00  0.00    +0.000 C 
ENDBRANCH   1   7
BRANCH   1   5
ATOM      4  O   UNL     1      33.458   1.197  16.079  0.00  0.00    +0.000 OA
ATOM      5  N   UNL     1      33.225  -0.734  13.146  0.00  0.00    +0.000 N 
ATOM      6  N   UNL     1      32.753   0.331  15.252  0.00  0.00    +0.000 NA
ATOM     16  C   UNL     1      33.576   0.123  14.245  0.00  0.00    +0.000 A 
ATOM     17  C   UNL     1      34.787   0.790  14.337  0.00  0.00    +0.000 A 
ATOM     18  C   UNL     1      34.668   1.463  15.523  0.00  0.00    +0.000 A 
ATOM     19  C   UNL     1      35.548   2.369  16.271  0.00  0.00    +0.000 C 
ATOM     20  H   UNL     1      33.891  -0.837  12.370  0.00  0.00    +0.000 HD
ENDBRANCH   1   5
TORSDOF 2
ENDMDL
MODEL 8
REMARK VINA RESULT:      -5.8      2.941      3.457
REMARK  Name = 577223
REMARK  6 active torsions:
REMARK  status: ('A' for Active; 'I' for Inactive)
REMARK    1  A    between atoms: S_1  and  N_5
REMARK    2  A    between atoms: S_1  and  C_7
REMARK    3  A    between atoms: C_8  and  C_13
REMARK    4  A    between atoms: C_9  and  C_14
REMARK    5  A    between atoms: C_10  and  C_15
REMARK    6  A    between atoms: C_18  and  C_19
REMARK                            x       y       z     vdW  Elec       q    Type
REMARK                         _______ _______ _______ _____ _____    ______ ____
ROOT
ATOM      1  S   UNL     1      31.387  -2.355  11.042  0.00  0.00    +0.000 S 
ATOM      2  O   UNL     1      31.229  -1.564  12.253  0.00  0.00    +0.000 OA
ATOM      3  O   UNL     1      30.263  -2.485  10.127  0.00  0.00    +0.000 OA
ENDROOT
BRANCH   1   7
ATOM      7  C   UNL     1      31.893  -3.964  11.528  0.00  0.00    +0.000 A 
ATOM      8  C   UNL     1      31.930  -4.305  12.880  0.00  0.00    +0.000 A 
ATOM      9  C   UNL     1      32.257  -4.902  10.561  0.00  0.00    +0.000 A 
ATOM     10  C   UNL     1      32.697  -6.521  12.300  0.00  0.00    +0.000 A 
ATOM     11  C   UNL     1      32.332  -5.583  13.266  0.00  0.00    +0.000 A 
ATOM     12  C   UNL     1      32.658  -6.180  10.948  0.00  0.00    +0.000 A 
ATOM     13  C   UNL     1      31.549  -3.327  13.943  0.00  0.00    +0.000 C 
ATOM     14  C   UNL     1      32.228  -4.573   9.105  0.00  0.00    +0.000 C 
ATOM     15  C   UNL     1      33.126  -7.888  12.712  0.00  0.00    +0.000 C 
ENDBRANCH   1   7
BRANCH   1   5
ATOM      4  O   UNL     1      31.973   1.412   8.919  0.00  0.00    +0.000 OA
ATOM      5  N   UNL     1      32.765  -1.772  10.191  0.00  0.00    +0.000 N 
ATOM      6  N   UNL     1      31.582   0.172   9.408  0.00  0.00    +0.000 NA
ATOM     16  C   UNL     1      32.723  -0.437   9.660  0.00  0.00    +0.000 A 
ATOM     17  C   UNL     1      33.855   0.308   9.374  0.00  0.00    +0.000 A 
ATOM     18  C   UNL     1      33.329   1.481   8.904  0.00  0.00    +0.000 A 
ATOM     19  C   UNL     1      33.916   2.733   8.412  0.00  0.00    +0.000 C 
ATOM     20  H   UNL     1      33.682  -2.213  10.340  0.00  0.00    +0.000 HD
ENDBRANCH   1   5
TORSDOF 2
ENDMDL
MODEL 9
REMARK VINA RESULT:      -5.8      2.973      4.075
REMARK  Name = 577223
REMARK  6 active torsions:
REMARK  status: ('A' for Active; 'I' for Inactive)
REMARK    1  A    between atoms: S_1  and  N_5
REMARK    2  A    between atoms: S_1  and  C_7
REMARK    3  A    between atoms: C_8  and  C_13
REMARK    4  A    between atoms: C_9  and  C_14
REMARK    5  A    between atoms: C_10  and  C_15
REMARK    6  A    between atoms: C_18  and  C_19
REMARK                            x       y       z     vdW  Elec       q    Type
REMARK                         _______ _______ _______ _____ _____    ______ ____
ROOT
ATOM      1  S   UNL     1      31.498  -2.244  10.936  0.00  0.00    +0.000 S 
ATOM      2  O   UNL     1      31.563  -1.407  12.125  0.00  0.00    +0.000 OA
ATOM      3  O   UNL     1      30.258  -2.304  10.178  0.00  0.00    +0.000 OA
ENDROOT
BRANCH   1   7
ATOM      7  C   UNL     1      31.932  -3.874  11.418  0.00  0.00    +0.000 A 
ATOM      8  C   UNL     1      32.267  -4.822  10.452  0.00  0.00    +0.000 A 
ATOM      9  C   UNL     1      31.942  -4.222  12.770  0.00  0.00    +0.000 A 
ATOM     10  C   UNL     1      32.621  -6.466  12.186  0.00  0.00    +0.000 A 
ATOM     11  C   UNL     1      32.612  -6.118  10.836  0.00  0.00    +0.000 A 
ATOM     12  C   UNL     1      32.287  -5.518  13.153  0.00  0.00    +0.000 A 
ATOM     13  C   UNL     1      32.267  -4.487   8.996  0.00  0.00    +0.000 C 
ATOM     14  C   UNL     1      31.590  -3.234  13.833  0.00  0.00    +0.000 C 
ATOM     15  C   UNL     1      32.990  -7.852  12.597  0.00  0.00    +0.000 C 
ENDBRANCH   1   7
BRANCH   1   5
ATOM      4  O   UNL     1      32.284   1.528   8.887  0.00  0.00    +0.000 OA
ATOM      5  N   UNL     1      32.796  -1.805   9.895  0.00  0.00    +0.000 N 
ATOM      6  N   UNL     1      31.799   0.326   9.387  0.00  0.00    +0.000 NA
ATOM     16  C   UNL     1      32.865  -0.448   9.427  0.00  0.00    +0.000 A 
ATOM     17  C   UNL     1      34.034   0.152   8.988  0.00  0.00    +0.000 A 
ATOM     18  C   UNL     1      33.616   1.412   8.654  0.00  0.00    +0.000 A 
ATOM     19  C   UNL     1      34.294   2.599   8.119  0.00  0.00    +0.000 C 
ATOM     20  H   UNL     1      33.651  -2.375   9.875  0.00  0.00    +0.000 HD
ENDBRANCH   1   5
TORSDOF 2
ENDMDL
