MODEL 1
REMARK VINA RESULT:      -7.8      0.000      0.000
REMARK  Name = 5329
REMARK  4 active torsions:
REMARK  status: ('A' for Active; 'I' for Inactive)
REMARK    1  A    between atoms: S_1  and  N_5
REMARK    2  A    between atoms: S_1  and  C_8
REMARK    3  A    between atoms: N_7  and  C_12
REMARK    4  A    between atoms: C_16  and  C_17
REMARK                            x       y       z     vdW  Elec       q    Type
REMARK                         _______ _______ _______ _____ _____    ______ ____
ROOT
ATOM      1  S   UNL     1      25.516  -4.104   7.828  0.00  0.00    +0.000 S 
ATOM      3  O   UNL     1      26.069  -5.268   8.512  0.00  0.00    +0.000 OA
ATOM      4  O   UNL     1      25.429  -4.120   6.373  0.00  0.00    +0.000 OA
ENDROOT
BRANCH   1   5
ATOM      2  O   UNL     1      21.503  -4.636   6.124  0.00  0.00    +0.000 OA
ATOM      5  N   UNL     1      23.960  -3.783   8.496  0.00  0.00    +0.000 N 
ATOM      6  N   UNL     1      22.737  -4.859   6.725  0.00  0.00    +0.000 NA
ATOM     11  C   UNL     1      22.815  -3.911   7.635  0.00  0.00    +0.000 A 
ATOM     15  C   UNL     1      21.719  -3.065   7.692  0.00  0.00    +0.000 A 
ATOM     16  C   UNL     1      20.907  -3.565   6.709  0.00  0.00    +0.000 A 
ATOM     17  C   UNL     1      19.586  -3.188   6.193  0.00  0.00    +0.000 C 
ATOM     18  H   UNL     1      23.905  -3.052   9.217  0.00  0.00    +0.000 HD
ENDBRANCH   1   5
BRANCH   1   8
ATOM      8  C   UNL     1      26.443  -2.709   8.320  0.00  0.00    +0.000 A 
ATOM      9  C   UNL     1      27.198  -2.750   9.492  0.00  0.00    +0.000 A 
ATOM     10  C   UNL     1      26.429  -1.552   7.539  0.00  0.00    +0.000 A 
ATOM     12  C   UNL     1      27.925  -0.479   9.104  0.00  0.00    +0.000 A 
ATOM     13  C   UNL     1      27.939  -1.636   9.883  0.00  0.00    +0.000 A 
ATOM     14  C   UNL     1      27.170  -0.438   7.932  0.00  0.00    +0.000 A 
BRANCH  12   7
ATOM      7  N   UNL     1      28.675   0.648   9.500  0.00  0.00    +0.000 N 
ATOM     19  H   UNL     1      29.381   1.028   8.885  0.00  0.00    +0.000 HD
ATOM     20  H   UNL     1      28.510   1.073  10.403  0.00  0.00    +0.000 HD
ENDBRANCH  12   7
ENDBRANCH   1   8
TORSDOF 3
ENDMDL
MODEL 2
REMARK VINA RESULT:      -7.5      2.067      2.735
REMARK  Name = 5329
REMARK  4 active torsions:
REMARK  status: ('A' for Active; 'I' for Inactive)
REMARK    1  A    between atoms: S_1  and  N_5
REMARK    2  A    between atoms: S_1  and  C_8
REMARK    3  A    between atoms: N_7  and  C_12
REMARK    4  A    between atoms: C_16  and  C_17
REMARK                            x       y       z     vdW  Elec       q    Type
REMARK                         _______ _______ _______ _____ _____    ______ ____
ROOT
ATOM      1  S   UNL     1      24.948  -4.811   7.653  0.00  0.00    +0.000 S 
ATOM      3  O   UNL     1      25.862  -5.937   7.504  0.00  0.00    +0.000 OA
ATOM      4  O   UNL     1      23.992  -4.538   6.587  0.00  0.00    +0.000 OA
ENDROOT
BRANCH   1   5
ATOM      2  O   UNL     1      21.660  -2.482   9.404  0.00  0.00    +0.000 OA
ATOM      5  N   UNL     1      24.108  -4.999   9.146  0.00  0.00    +0.000 N 
ATOM      6  N   UNL     1      22.402  -3.379   8.642  0.00  0.00    +0.000 NA
ATOM     11  C   UNL     1      23.169  -3.978   9.528  0.00  0.00    +0.000 A 
ATOM     15  C   UNL     1      22.997  -3.550  10.834  0.00  0.00    +0.000 A 
ATOM     16  C   UNL     1      22.025  -2.594  10.707  0.00  0.00    +0.000 A 
ATOM     17  C   UNL     1      21.335  -1.713  11.658  0.00  0.00    +0.000 C 
ATOM     18  H   UNL     1      24.620  -5.453   9.913  0.00  0.00    +0.000 HD
ENDBRANCH   1   5
BRANCH   1   8
ATOM      8  C   UNL     1      25.907  -3.378   7.926  0.00  0.00    +0.000 A 
ATOM      9  C   UNL     1      26.004  -2.403   6.933  0.00  0.00    +0.000 A 
ATOM     10  C   UNL     1      26.577  -3.208   9.138  0.00  0.00    +0.000 A 
ATOM     12  C   UNL     1      27.440  -1.089   8.363  0.00  0.00    +0.000 A 
ATOM     13  C   UNL     1      26.770  -1.259   7.152  0.00  0.00    +0.000 A 
ATOM     14  C   UNL     1      27.343  -2.064   9.356  0.00  0.00    +0.000 A 
BRANCH  12   7
ATOM      7  N   UNL     1      28.214   0.069   8.585  0.00  0.00    +0.000 N 
ATOM     19  H   UNL     1      28.713   0.499   7.818  0.00  0.00    +0.000 HD
ATOM     20  H   UNL     1      28.274   0.468   9.512  0.00  0.00    +0.000 HD
ENDBRANCH  12   7
ENDBRANCH   1   8
TORSDOF 3
ENDMDL
MODEL 3
REMARK VINA RESULT:      -7.4      4.431      8.044
REMARK  Name = 5329
REMARK  4 active torsions:
REMARK  status: ('A' for Active; 'I' for Inactive)
REMARK    1  A    between atoms: S_1  and  N_5
REMARK    2  A    between atoms: S_1  and  C_8
REMARK    3  A    between atoms: N_7  and  C_12
REMARK    4  A    between atoms: C_16  and  C_17
REMARK                            x       y       z     vdW  Elec       q    Type
REMARK                         _______ _______ _______ _____ _____    ______ ____
ROOT
ATOM      1  S   UNL     1      29.121  -0.294   9.360  0.00  0.00    +0.000 S 
ATOM      3  O   UNL     1      28.530   0.238  10.583  0.00  0.00    +0.000 OA
ATOM      4  O   UNL     1      29.569   0.638   8.333  0.00  0.00    +0.000 OA
ENDROOT
BRANCH   1   5
ATOM      2  O   UNL     1      30.543  -1.569  13.316  0.00  0.00    +0.000 OA
ATOM      5  N   UNL     1      30.423  -1.332   9.806  0.00  0.00    +0.000 N 
ATOM      6  N   UNL     1      29.822  -1.448  12.133  0.00  0.00    +0.000 NA
ATOM     11  C   UNL     1      30.753  -1.443  11.201  0.00  0.00    +0.000 A 
ATOM     15  C   UNL     1      32.051  -1.554  11.672  0.00  0.00    +0.000 A 
ATOM     16  C   UNL     1      31.868  -1.631  13.027  0.00  0.00    +0.000 A 
ATOM     17  C   UNL     1      32.782  -1.762  14.170  0.00  0.00    +0.000 C 
ATOM     18  H   UNL     1      31.210  -1.398   9.148  0.00  0.00    +0.000 HD
ENDBRANCH   1   5
BRANCH   1   8
ATOM      8  C   UNL     1      27.971  -1.399   8.651  0.00  0.00    +0.000 A 
ATOM      9  C   UNL     1      27.338  -1.074   7.451  0.00  0.00    +0.000 A 
ATOM     10  C   UNL     1      27.685  -2.610   9.284  0.00  0.00    +0.000 A 
ATOM     12  C   UNL     1      26.133  -3.166   7.517  0.00  0.00    +0.000 A 
ATOM     13  C   UNL     1      26.420  -1.957   6.884  0.00  0.00    +0.000 A 
ATOM     14  C   UNL     1      26.766  -3.492   8.716  0.00  0.00    +0.000 A 
BRANCH  12   7
ATOM      7  N   UNL     1      25.205  -4.060   6.943  0.00  0.00    +0.000 N 
ATOM     19  H   UNL     1      24.391  -4.350   7.466  0.00  0.00    +0.000 HD
ATOM     20  H   UNL     1      25.357  -4.415   6.008  0.00  0.00    +0.000 HD
ENDBRANCH  12   7
ENDBRANCH   1   8
TORSDOF 3
ENDMDL
MODEL 4
REMARK VINA RESULT:      -7.3      3.093      3.489
REMARK  Name = 5329
REMARK  4 active torsions:
REMARK  status: ('A' for Active; 'I' for Inactive)
REMARK    1  A    between atoms: S_1  and  N_5
REMARK    2  A    between atoms: S_1  and  C_8
REMARK    3  A    between atoms: N_7  and  C_12
REMARK    4  A    between atoms: C_16  and  C_17
REMARK                            x       y       z     vdW  Elec       q    Type
REMARK                         _______ _______ _______ _____ _____    ______ ____
ROOT
ATOM      1  S   UNL     1      26.304  -3.297   8.440  0.00  0.00    +0.000 S 
ATOM      3  O   UNL     1      26.545  -2.849   7.074  0.00  0.00    +0.000 OA
ATOM      4  O   UNL     1      25.058  -2.917   9.094  0.00  0.00    +0.000 OA
ENDROOT
BRANCH   1   5
ATOM      2  O   UNL     1      23.882  -6.459   6.588  0.00  0.00    +0.000 OA
ATOM      5  N   UNL     1      26.476  -5.011   8.477  0.00  0.00    +0.000 N 
ATOM      6  N   UNL     1      24.797  -5.435   6.806  0.00  0.00    +0.000 NA
ATOM     11  C   UNL     1      25.428  -5.809   7.899  0.00  0.00    +0.000 A 
ATOM     15  C   UNL     1      25.004  -7.015   8.433  0.00  0.00    +0.000 A 
ATOM     16  C   UNL     1      24.016  -7.394   7.563  0.00  0.00    +0.000 A 
ATOM     17  C   UNL     1      23.121  -8.555   7.486  0.00  0.00    +0.000 C 
ATOM     18  H   UNL     1      26.952  -5.413   9.294  0.00  0.00    +0.000 HD
ENDBRANCH   1   5
BRANCH   1   8
ATOM      8  C   UNL     1      27.640  -2.753   9.422  0.00  0.00    +0.000 A 
ATOM      9  C   UNL     1      27.466  -1.695  10.315  0.00  0.00    +0.000 A 
ATOM     10  C   UNL     1      28.884  -3.376   9.314  0.00  0.00    +0.000 A 
ATOM     12  C   UNL     1      29.777  -1.884  10.991  0.00  0.00    +0.000 A 
ATOM     13  C   UNL     1      28.534  -1.261  11.099  0.00  0.00    +0.000 A 
ATOM     14  C   UNL     1      29.952  -2.941  10.099  0.00  0.00    +0.000 A 
BRANCH  12   7
ATOM      7  N   UNL     1      30.857  -1.445  11.786  0.00  0.00    +0.000 N 
ATOM     19  H   UNL     1      30.683  -0.917  12.630  0.00  0.00    +0.000 HD
ATOM     20  H   UNL     1      31.807  -1.654  11.509  0.00  0.00    +0.000 HD
ENDBRANCH  12   7
ENDBRANCH   1   8
TORSDOF 3
ENDMDL
MODEL 5
REMARK VINA RESULT:      -7.3      2.186      3.013
REMARK  Name = 5329
REMARK  4 active torsions:
REMARK  status: ('A' for Active; 'I' for Inactive)
REMARK    1  A    between atoms: S_1  and  N_5
REMARK    2  A    between atoms: S_1  and  C_8
REMARK    3  A    between atoms: N_7  and  C_12
REMARK    4  A    between atoms: C_16  and  C_17
REMARK                            x       y       z     vdW  Elec       q    Type
REMARK                         _______ _______ _______ _____ _____    ______ ____
ROOT
ATOM      1  S   UNL     1      22.944  -5.461   7.421  0.00  0.00    +0.000 S 
ATOM      3  O   UNL     1      22.142  -5.624   8.627  0.00  0.00    +0.000 OA
ATOM      4  O   UNL     1      23.480  -6.649   6.768  0.00  0.00    +0.000 OA
ENDROOT
BRANCH   1   5
ATOM      2  O   UNL     1      20.587  -1.792   7.944  0.00  0.00    +0.000 OA
ATOM      5  N   UNL     1      22.023  -4.545   6.288  0.00  0.00    +0.000 N 
ATOM      6  N   UNL     1      21.633  -2.692   7.771  0.00  0.00    +0.000 NA
ATOM     11  C   UNL     1      21.219  -3.462   6.787  0.00  0.00    +0.000 A 
ATOM     15  C   UNL     1      19.969  -3.144   6.283  0.00  0.00    +0.000 A 
ATOM     16  C   UNL     1      19.603  -2.072   7.052  0.00  0.00    +0.000 A 
ATOM     17  C   UNL     1      18.414  -1.211   7.096  0.00  0.00    +0.000 C 
ATOM     18  H   UNL     1      21.645  -5.053   5.478  0.00  0.00    +0.000 HD
ENDBRANCH   1   5
BRANCH   1   8
ATOM      8  C   UNL     1      24.266  -4.386   7.802  0.00  0.00    +0.000 A 
ATOM      9  C   UNL     1      25.215  -4.073   6.828  0.00  0.00    +0.000 A 
ATOM     10  C   UNL     1      24.374  -3.840   9.082  0.00  0.00    +0.000 A 
ATOM     12  C   UNL     1      26.379  -2.669   8.412  0.00  0.00    +0.000 A 
ATOM     13  C   UNL     1      26.270  -3.215   7.133  0.00  0.00    +0.000 A 
ATOM     14  C   UNL     1      25.430  -2.982   9.385  0.00  0.00    +0.000 A 
BRANCH  12   7
ATOM      7  N   UNL     1      27.446  -1.800   8.719  0.00  0.00    +0.000 N 
ATOM     19  H   UNL     1      28.246  -1.743   8.104  0.00  0.00    +0.000 HD
ATOM     20  H   UNL     1      27.414  -1.236   9.558  0.00  0.00    +0.000 HD
ENDBRANCH  12   7
ENDBRANCH   1   8
TORSDOF 3
ENDMDL
MODEL 6
REMARK VINA RESULT:      -6.9      2.930      6.831
REMARK  Name = 5329
REMARK  4 active torsions:
REMARK  status: ('A' for Active; 'I' for Inactive)
REMARK    1  A    between atoms: S_1  and  N_5
REMARK    2  A    between atoms: S_1  and  C_8
REMARK    3  A    between atoms: N_7  and  C_12
REMARK    4  A    between atoms: C_16  and  C_17
REMARK                            x       y       z     vdW  Elec       q    Type
REMARK                         _______ _______ _______ _____ _____    ______ ____
ROOT
ATOM      1  S   UNL     1      25.440  -3.468   7.793  0.00  0.00    +0.000 S 
ATOM      3  O   UNL     1      24.292  -2.595   8.006  0.00  0.00    +0.000 OA
ATOM      4  O   UNL     1      26.241  -3.293   6.588  0.00  0.00    +0.000 OA
ENDROOT
BRANCH   1   5
ATOM      2  O   UNL     1      28.459  -0.481   8.914  0.00  0.00    +0.000 OA
ATOM      5  N   UNL     1      26.455  -3.363   9.182  0.00  0.00    +0.000 N 
ATOM      6  N   UNL     1      27.257  -1.146   8.697  0.00  0.00    +0.000 NA
ATOM     11  C   UNL     1      27.470  -2.344   9.203  0.00  0.00    +0.000 A 
ATOM     15  C   UNL     1      28.730  -2.532   9.746  0.00  0.00    +0.000 A 
ATOM     16  C   UNL     1      29.327  -1.317   9.539  0.00  0.00    +0.000 A 
ATOM     17  C   UNL     1      30.655  -0.772   9.847  0.00  0.00    +0.000 C 
ATOM     18  H   UNL     1      26.690  -4.245   9.654  0.00  0.00    +0.000 HD
ENDBRANCH   1   5
BRANCH   1   8
ATOM      8  C   UNL     1      24.872  -5.118   7.853  0.00  0.00    +0.000 A 
ATOM      9  C   UNL     1      23.572  -5.423   7.452  0.00  0.00    +0.000 A 
ATOM     10  C   UNL     1      25.719  -6.131   8.303  0.00  0.00    +0.000 A 
ATOM     12  C   UNL     1      23.965  -7.754   7.950  0.00  0.00    +0.000 A 
ATOM     13  C   UNL     1      23.118  -6.741   7.500  0.00  0.00    +0.000 A 
ATOM     14  C   UNL     1      25.265  -7.448   8.351  0.00  0.00    +0.000 A 
BRANCH  12   7
ATOM      7  N   UNL     1      23.506  -9.087   7.997  0.00  0.00    +0.000 N 
ATOM     19  H   UNL     1      23.058  -9.440   8.832  0.00  0.00    +0.000 HD
ATOM     20  H   UNL     1      23.630  -9.693   7.197  0.00  0.00    +0.000 HD
ENDBRANCH  12   7
ENDBRANCH   1   8
TORSDOF 3
ENDMDL
MODEL 7
REMARK VINA RESULT:      -6.8      4.530      8.366
REMARK  Name = 5329
REMARK  4 active torsions:
REMARK  status: ('A' for Active; 'I' for Inactive)
REMARK    1  A    between atoms: S_1  and  N_5
REMARK    2  A    between atoms: S_1  and  C_8
REMARK    3  A    between atoms: N_7  and  C_12
REMARK    4  A    between atoms: C_16  and  C_17
REMARK                            x       y       z     vdW  Elec       q    Type
REMARK                         _______ _______ _______ _____ _____    ______ ____
ROOT
ATOM      1  S   UNL     1      29.048   0.042   9.334  0.00  0.00    +0.000 S 
ATOM      3  O   UNL     1      28.312   0.793  10.344  0.00  0.00    +0.000 OA
ATOM      4  O   UNL     1      29.660   0.767   8.227  0.00  0.00    +0.000 OA
ENDROOT
BRANCH   1   5
ATOM      2  O   UNL     1      33.427   0.085   9.003  0.00  0.00    +0.000 OA
ATOM      5  N   UNL     1      30.244  -0.903  10.137  0.00  0.00    +0.000 N 
ATOM      6  N   UNL     1      32.112   0.387   9.338  0.00  0.00    +0.000 NA
ATOM     11  C   UNL     1      31.610  -0.773   9.706  0.00  0.00    +0.000 A 
ATOM     15  C   UNL     1      32.495  -1.837   9.644  0.00  0.00    +0.000 A 
ATOM     16  C   UNL     1      33.642  -1.243   9.190  0.00  0.00    +0.000 A 
ATOM     17  C   UNL     1      34.990  -1.738   8.883  0.00  0.00    +0.000 C 
ATOM     18  H   UNL     1      29.959  -1.835  10.463  0.00  0.00    +0.000 HD
ENDBRANCH   1   5
BRANCH   1   8
ATOM      8  C   UNL     1      27.971  -1.169   8.683  0.00  0.00    +0.000 A 
ATOM      9  C   UNL     1      27.303  -0.937   7.482  0.00  0.00    +0.000 A 
ATOM     10  C   UNL     1      27.779  -2.370   9.367  0.00  0.00    +0.000 A 
ATOM     12  C   UNL     1      26.251  -3.105   7.646  0.00  0.00    +0.000 A 
ATOM     13  C   UNL     1      26.444  -1.904   6.962  0.00  0.00    +0.000 A 
ATOM     14  C   UNL     1      26.919  -3.337   8.848  0.00  0.00    +0.000 A 
BRANCH  12   7
ATOM      7  N   UNL     1      25.382  -4.084   7.120  0.00  0.00    +0.000 N 
ATOM     19  H   UNL     1      25.704  -5.034   6.999  0.00  0.00    +0.000 HD
ATOM     20  H   UNL     1      24.438  -3.834   6.858  0.00  0.00    +0.000 HD
ENDBRANCH  12   7
ENDBRANCH   1   8
TORSDOF 3
ENDMDL
MODEL 8
REMARK VINA RESULT:      -6.8      2.824      6.489
REMARK  Name = 5329
REMARK  4 active torsions:
REMARK  status: ('A' for Active; 'I' for Inactive)
REMARK    1  A    between atoms: S_1  and  N_5
REMARK    2  A    between atoms: S_1  and  C_8
REMARK    3  A    between atoms: N_7  and  C_12
REMARK    4  A    between atoms: C_16  and  C_17
REMARK                            x       y       z     vdW  Elec       q    Type
REMARK                         _______ _______ _______ _____ _____    ______ ____
ROOT
ATOM      1  S   UNL     1      23.317  -3.850   8.356  0.00  0.00    +0.000 S 
ATOM      3  O   UNL     1      23.667  -3.632   9.755  0.00  0.00    +0.000 OA
ATOM      4  O   UNL     1      22.094  -3.249   7.837  0.00  0.00    +0.000 OA
ENDROOT
BRANCH   1   5
ATOM      2  O   UNL     1      27.157  -2.043   9.485  0.00  0.00    +0.000 OA
ATOM      5  N   UNL     1      24.656  -3.362   7.388  0.00  0.00    +0.000 N 
ATOM      6  N   UNL     1      26.127  -2.946   9.247  0.00  0.00    +0.000 NA
ATOM     11  C   UNL     1      25.728  -2.648   8.028  0.00  0.00    +0.000 A 
ATOM     15  C   UNL     1      26.418  -1.608   7.426  0.00  0.00    +0.000 A 
ATOM     16  C   UNL     1      27.321  -1.252   8.393  0.00  0.00    +0.000 A 
ATOM     17  C   UNL     1      28.376  -0.234   8.473  0.00  0.00    +0.000 C 
ATOM     18  H   UNL     1      24.455  -3.100   6.415  0.00  0.00    +0.000 HD
ENDBRANCH   1   5
BRANCH   1   8
ATOM      8  C   UNL     1      23.252  -5.574   8.086  0.00  0.00    +0.000 A 
ATOM      9  C   UNL     1      24.129  -6.420   8.765  0.00  0.00    +0.000 A 
ATOM     10  C   UNL     1      22.324  -6.105   7.190  0.00  0.00    +0.000 A 
ATOM     12  C   UNL     1      23.149  -8.328   7.654  0.00  0.00    +0.000 A 
ATOM     13  C   UNL     1      24.077  -7.796   8.550  0.00  0.00    +0.000 A 
ATOM     14  C   UNL     1      22.273  -7.482   6.975  0.00  0.00    +0.000 A 
BRANCH  12   7
ATOM      7  N   UNL     1      23.097  -9.721   7.437  0.00  0.00    +0.000 N 
ATOM     19  H   UNL     1      22.712 -10.085   6.576  0.00  0.00    +0.000 HD
ATOM     20  H   UNL     1      23.440 -10.356   8.145  0.00  0.00    +0.000 HD
ENDBRANCH  12   7
ENDBRANCH   1   8
TORSDOF 3
ENDMDL
MODEL 9
REMARK VINA RESULT:      -6.3      3.292      5.820
REMARK  Name = 5329
REMARK  4 active torsions:
REMARK  status: ('A' for Active; 'I' for Inactive)
REMARK    1  A    between atoms: S_1  and  N_5
REMARK    2  A    between atoms: S_1  and  C_8
REMARK    3  A    between atoms: N_7  and  C_12
REMARK    4  A    between atoms: C_16  and  C_17
REMARK                            x       y       z     vdW  Elec       q    Type
REMARK                         _______ _______ _______ _____ _____    ______ ____
ROOT
ATOM      1  S   UNL     1      22.635  -6.310   7.113  0.00  0.00    +0.000 S 
ATOM      3  O   UNL     1      21.185  -6.457   7.074  0.00  0.00    +0.000 OA
ATOM      4  O   UNL     1      23.441  -7.040   6.142  0.00  0.00    +0.000 OA
ENDROOT
BRANCH   1   5
ATOM      2  O   UNL     1      26.437  -4.177   7.647  0.00  0.00    +0.000 OA
ATOM      5  N   UNL     1      23.003  -4.629   7.022  0.00  0.00    +0.000 N 
ATOM      6  N   UNL     1      25.389  -4.923   7.119  0.00  0.00    +0.000 NA
ATOM     11  C   UNL     1      24.323  -4.204   7.402  0.00  0.00    +0.000 A 
ATOM     15  C   UNL     1      24.579  -3.024   8.082  0.00  0.00    +0.000 A 
ATOM     16  C   UNL     1      25.941  -3.050   8.218  0.00  0.00    +0.000 A 
ATOM     17  C   UNL     1      26.919  -2.140   8.828  0.00  0.00    +0.000 C 
ATOM     18  H   UNL     1      22.239  -3.974   7.230  0.00  0.00    +0.000 HD
ENDBRANCH   1   5
BRANCH   1   8
ATOM      8  C   UNL     1      23.170  -6.736   8.719  0.00  0.00    +0.000 A 
ATOM      9  C   UNL     1      24.274  -7.572   8.889  0.00  0.00    +0.000 A 
ATOM     10  C   UNL     1      22.493  -6.241   9.834  0.00  0.00    +0.000 A 
ATOM     12  C   UNL     1      24.024  -7.417  11.286  0.00  0.00    +0.000 A 
ATOM     13  C   UNL     1      24.701  -7.912  10.171  0.00  0.00    +0.000 A 
ATOM     14  C   UNL     1      22.920  -6.582  11.117  0.00  0.00    +0.000 A 
BRANCH  12   7
ATOM      7  N   UNL     1      24.457  -7.761  12.584  0.00  0.00    +0.000 N 
ATOM     19  H   UNL     1      25.268  -7.309  12.984  0.00  0.00    +0.000 HD
ATOM     20  H   UNL     1      23.959  -8.464  13.114  0.00  0.00    +0.000 HD
ENDBRANCH  12   7
ENDBRANCH   1   8
TORSDOF 3
ENDMDL
