MODEL 1
REMARK VINA RESULT:      -7.8      0.000      0.000
REMARK  Name = 562945
REMARK  7 active torsions:
REMARK  status: ('A' for Active; 'I' for Inactive)
REMARK    1  A    between atoms: S_1  and  N_5
REMARK    2  A    between atoms: S_1  and  C_11
REMARK    3  A    between atoms: C_7  and  C_8
REMARK    4  A    between atoms: C_7  and  C_9
REMARK    5  A    between atoms: C_8  and  C_10
REMARK    6  A    between atoms: C_10  and  C_16
REMARK    7  A    between atoms: C_19  and  C_20
REMARK                            x       y       z     vdW  Elec       q    Type
REMARK                         _______ _______ _______ _____ _____    ______ ____
ROOT
ATOM      1  S   UNL     1      28.757  -0.208  10.181  0.00  0.00    +0.000 S 
ATOM      2  O   UNL     1      28.942  -0.859  11.473  0.00  0.00    +0.000 OA
ATOM      3  O   UNL     1      28.181   1.130  10.147  0.00  0.00    +0.000 OA
ENDROOT
BRANCH   1   5
ATOM      4  O   UNL     1      33.079  -2.246   9.946  0.00  0.00    +0.000 OA
ATOM      5  N   UNL     1      30.271  -0.206   9.361  0.00  0.00    +0.000 N 
ATOM      6  N   UNL     1      32.517  -1.063   9.482  0.00  0.00    +0.000 NA
ATOM     17  C   UNL     1      31.228  -1.222   9.704  0.00  0.00    +0.000 A 
ATOM     18  C   UNL     1      30.882  -2.430  10.287  0.00  0.00    +0.000 A 
ATOM     19  C   UNL     1      32.095  -3.052  10.422  0.00  0.00    +0.000 A 
ATOM     20  C   UNL     1      32.516  -4.353  10.957  0.00  0.00    +0.000 C 
ATOM     21  H   UNL     1      30.650   0.677   8.996  0.00  0.00    +0.000 HD
ENDBRANCH   1   5
BRANCH   1  11
ATOM      9  C   UNL     1      26.228  -2.936   7.613  0.00  0.00    +0.000 A 
ATOM     11  C   UNL     1      27.780  -1.262   9.189  0.00  0.00    +0.000 A 
ATOM     12  C   UNL     1      26.435  -1.624   7.215  0.00  0.00    +0.000 A 
ATOM     13  C   UNL     1      26.782  -3.426   8.786  0.00  0.00    +0.000 A 
ATOM     14  C   UNL     1      27.216  -0.782   8.007  0.00  0.00    +0.000 A 
ATOM     15  C   UNL     1      27.563  -2.584   9.579  0.00  0.00    +0.000 A 
BRANCH   9   7
ATOM      7  C   UNL     1      25.384  -3.846   6.757  0.00  0.00    +0.000 C 
BRANCH   7   8
ATOM      8  C   UNL     1      24.396  -4.658   7.595  0.00  0.00    +0.000 C 
BRANCH   8  10
ATOM     10  C   UNL     1      23.246  -3.786   8.096  0.00  0.00    +0.000 C 
ATOM     16  C   UNL     1      23.113  -3.851   9.608  0.00  0.00    +0.000 C 
ENDBRANCH   8  10
ENDBRANCH   7   8
ENDBRANCH   9   7
ENDBRANCH   1  11
TORSDOF 5
ENDMDL
MODEL 2
REMARK VINA RESULT:      -7.7      4.502      7.444
REMARK  Name = 562945
REMARK  7 active torsions:
REMARK  status: ('A' for Active; 'I' for Inactive)
REMARK    1  A    between atoms: S_1  and  N_5
REMARK    2  A    between atoms: S_1  and  C_11
REMARK    3  A    between atoms: C_7  and  C_8
REMARK    4  A    between atoms: C_7  and  C_9
REMARK    5  A    between atoms: C_8  and  C_10
REMARK    6  A    between atoms: C_10  and  C_16
REMARK    7  A    between atoms: C_19  and  C_20
REMARK                            x       y       z     vdW  Elec       q    Type
REMARK                         _______ _______ _______ _____ _____    ______ ____
ROOT
ATOM      1  S   UNL     1      25.299  -4.015   7.730  0.00  0.00    +0.000 S 
ATOM      2  O   UNL     1      25.298  -4.032   6.272  0.00  0.00    +0.000 OA
ATOM      3  O   UNL     1      24.063  -3.684   8.428  0.00  0.00    +0.000 OA
ENDROOT
BRANCH   1   5
ATOM      4  O   UNL     1      24.138  -8.583   8.551  0.00  0.00    +0.000 OA
ATOM      5  N   UNL     1      25.882  -5.538   8.283  0.00  0.00    +0.000 N 
ATOM      6  N   UNL     1      25.166  -7.738   8.947  0.00  0.00    +0.000 NA
ATOM     17  C   UNL     1      25.006  -6.674   8.187  0.00  0.00    +0.000 A 
ATOM     18  C   UNL     1      23.940  -6.743   7.306  0.00  0.00    +0.000 A 
ATOM     19  C   UNL     1      23.415  -7.980   7.573  0.00  0.00    +0.000 A 
ATOM     20  C   UNL     1      22.279  -8.739   7.035  0.00  0.00    +0.000 C 
ATOM     21  H   UNL     1      26.598  -5.571   9.020  0.00  0.00    +0.000 HD
ENDBRANCH   1   5
BRANCH   1  11
ATOM      9  C   UNL     1      28.531  -1.154   9.071  0.00  0.00    +0.000 A 
ATOM     11  C   UNL     1      26.547  -2.910   8.249  0.00  0.00    +0.000 A 
ATOM     12  C   UNL     1      27.662  -0.774   8.059  0.00  0.00    +0.000 A 
ATOM     13  C   UNL     1      28.427  -2.397   9.677  0.00  0.00    +0.000 A 
ATOM     14  C   UNL     1      26.663  -1.657   7.646  0.00  0.00    +0.000 A 
ATOM     15  C   UNL     1      27.430  -3.280   9.264  0.00  0.00    +0.000 A 
BRANCH   9   7
ATOM      7  C   UNL     1      29.610  -0.200   9.518  0.00  0.00    +0.000 C 
BRANCH   7   8
ATOM      8  C   UNL     1      30.922  -0.927   9.815  0.00  0.00    +0.000 C 
BRANCH   8  10
ATOM     10  C   UNL     1      32.128  -0.094   9.381  0.00  0.00    +0.000 C 
ATOM     16  C   UNL     1      31.709   1.086   8.519  0.00  0.00    +0.000 C 
ENDBRANCH   8  10
ENDBRANCH   7   8
ENDBRANCH   9   7
ENDBRANCH   1  11
TORSDOF 5
ENDMDL
MODEL 3
REMARK VINA RESULT:      -7.5      1.599      2.309
REMARK  Name = 562945
REMARK  7 active torsions:
REMARK  status: ('A' for Active; 'I' for Inactive)
REMARK    1  A    between atoms: S_1  and  N_5
REMARK    2  A    between atoms: S_1  and  C_11
REMARK    3  A    between atoms: C_7  and  C_8
REMARK    4  A    between atoms: C_7  and  C_9
REMARK    5  A    between atoms: C_8  and  C_10
REMARK    6  A    between atoms: C_10  and  C_16
REMARK    7  A    between atoms: C_19  and  C_20
REMARK                            x       y       z     vdW  Elec       q    Type
REMARK                         _______ _______ _______ _____ _____    ______ ____
ROOT
ATOM      1  S   UNL     1      29.048   0.238   9.285  0.00  0.00    +0.000 S 
ATOM      2  O   UNL     1      28.303   1.014  10.271  0.00  0.00    +0.000 OA
ATOM      3  O   UNL     1      29.639   0.933   8.149  0.00  0.00    +0.000 OA
ENDROOT
BRANCH   1   5
ATOM      4  O   UNL     1      33.662  -1.025   9.269  0.00  0.00    +0.000 OA
ATOM      5  N   UNL     1      30.266  -0.653  10.114  0.00  0.00    +0.000 N 
ATOM      6  N   UNL     1      32.512  -1.489   9.895  0.00  0.00    +0.000 NA
ATOM     17  C   UNL     1      31.619  -0.556   9.637  0.00  0.00    +0.000 A 
ATOM     18  C   UNL     1      32.086   0.505   8.879  0.00  0.00    +0.000 A 
ATOM     19  C   UNL     1      33.396   0.163   8.668  0.00  0.00    +0.000 A 
ATOM     20  C   UNL     1      34.509   0.800   7.953  0.00  0.00    +0.000 C 
ATOM     21  H   UNL     1      30.014  -1.518  10.609  0.00  0.00    +0.000 HD
ENDBRANCH   1   5
BRANCH   1  11
ATOM      9  C   UNL     1      26.310  -3.006   7.733  0.00  0.00    +0.000 A 
ATOM     11  C   UNL     1      27.990  -1.015   8.686  0.00  0.00    +0.000 A 
ATOM     12  C   UNL     1      26.508  -1.860   6.975  0.00  0.00    +0.000 A 
ATOM     13  C   UNL     1      26.936  -3.172   8.958  0.00  0.00    +0.000 A 
ATOM     14  C   UNL     1      27.354  -0.860   7.454  0.00  0.00    +0.000 A 
ATOM     15  C   UNL     1      27.781  -2.171   9.438  0.00  0.00    +0.000 A 
BRANCH   9   7
ATOM      7  C   UNL     1      25.396  -4.087   7.215  0.00  0.00    +0.000 C 
BRANCH   7   8
ATOM      8  C   UNL     1      24.269  -4.398   8.201  0.00  0.00    +0.000 C 
BRANCH   8  10
ATOM     10  C   UNL     1      24.405  -5.808   8.772  0.00  0.00    +0.000 C 
ATOM     16  C   UNL     1      25.546  -6.568   8.116  0.00  0.00    +0.000 C 
ENDBRANCH   8  10
ENDBRANCH   7   8
ENDBRANCH   9   7
ENDBRANCH   1  11
TORSDOF 5
ENDMDL
MODEL 4
REMARK VINA RESULT:      -7.4      2.136      2.842
REMARK  Name = 562945
REMARK  7 active torsions:
REMARK  status: ('A' for Active; 'I' for Inactive)
REMARK    1  A    between atoms: S_1  and  N_5
REMARK    2  A    between atoms: S_1  and  C_11
REMARK    3  A    between atoms: C_7  and  C_8
REMARK    4  A    between atoms: C_7  and  C_9
REMARK    5  A    between atoms: C_8  and  C_10
REMARK    6  A    between atoms: C_10  and  C_16
REMARK    7  A    between atoms: C_19  and  C_20
REMARK                            x       y       z     vdW  Elec       q    Type
REMARK                         _______ _______ _______ _____ _____    ______ ____
ROOT
ATOM      1  S   UNL     1      29.397  -0.687   9.682  0.00  0.00    +0.000 S 
ATOM      2  O   UNL     1      30.648  -1.421   9.533  0.00  0.00    +0.000 OA
ATOM      3  O   UNL     1      28.945  -0.337  11.022  0.00  0.00    +0.000 OA
ENDROOT
BRANCH   1   5
ATOM      4  O   UNL     1      32.169   3.000   8.415  0.00  0.00    +0.000 OA
ATOM      5  N   UNL     1      29.492   0.736   8.716  0.00  0.00    +0.000 N 
ATOM      6  N   UNL     1      30.812   2.713   8.343  0.00  0.00    +0.000 NA
ATOM     17  C   UNL     1      30.745   1.439   8.668  0.00  0.00    +0.000 A 
ATOM     18  C   UNL     1      31.964   0.846   8.955  0.00  0.00    +0.000 A 
ATOM     19  C   UNL     1      32.845   1.880   8.779  0.00  0.00    +0.000 A 
ATOM     20  C   UNL     1      34.303   2.005   8.905  0.00  0.00    +0.000 C 
ATOM     21  H   UNL     1      28.646   1.294   8.549  0.00  0.00    +0.000 HD
ENDBRANCH   1   5
BRANCH   1  11
ATOM      9  C   UNL     1      26.149  -3.072   7.635  0.00  0.00    +0.000 A 
ATOM     11  C   UNL     1      28.142  -1.609   8.891  0.00  0.00    +0.000 A 
ATOM     12  C   UNL     1      26.427  -1.785   7.199  0.00  0.00    +0.000 A 
ATOM     13  C   UNL     1      26.848  -3.639   8.688  0.00  0.00    +0.000 A 
ATOM     14  C   UNL     1      27.430  -1.049   7.830  0.00  0.00    +0.000 A 
ATOM     15  C   UNL     1      27.851  -2.904   9.321  0.00  0.00    +0.000 A 
BRANCH   9   7
ATOM      7  C   UNL     1      25.065  -3.867   6.952  0.00  0.00    +0.000 C 
BRANCH   7   8
ATOM      8  C   UNL     1      24.157  -4.572   7.961  0.00  0.00    +0.000 C 
BRANCH   8  10
ATOM     10  C   UNL     1      23.097  -3.619   8.513  0.00  0.00    +0.000 C 
ATOM     16  C   UNL     1      23.038  -3.668  10.030  0.00  0.00    +0.000 C 
ENDBRANCH   8  10
ENDBRANCH   7   8
ENDBRANCH   9   7
ENDBRANCH   1  11
TORSDOF 5
ENDMDL
MODEL 5
REMARK VINA RESULT:      -7.2      3.729      5.088
REMARK  Name = 562945
REMARK  7 active torsions:
REMARK  status: ('A' for Active; 'I' for Inactive)
REMARK    1  A    between atoms: S_1  and  N_5
REMARK    2  A    between atoms: S_1  and  C_11
REMARK    3  A    between atoms: C_7  and  C_8
REMARK    4  A    between atoms: C_7  and  C_9
REMARK    5  A    between atoms: C_8  and  C_10
REMARK    6  A    between atoms: C_10  and  C_16
REMARK    7  A    between atoms: C_19  and  C_20
REMARK                            x       y       z     vdW  Elec       q    Type
REMARK                         _______ _______ _______ _____ _____    ______ ____
ROOT
ATOM      1  S   UNL     1      32.374  -2.690  12.384  0.00  0.00    +0.000 S 
ATOM      2  O   UNL     1      33.442  -2.893  11.411  0.00  0.00    +0.000 OA
ATOM      3  O   UNL     1      32.169  -3.696  13.419  0.00  0.00    +0.000 OA
ENDROOT
BRANCH   1   5
ATOM      4  O   UNL     1      34.428  -0.351  16.016  0.00  0.00    +0.000 OA
ATOM      5  N   UNL     1      32.603  -1.148  13.115  0.00  0.00    +0.000 N 
ATOM      6  N   UNL     1      33.411  -0.075  15.112  0.00  0.00    +0.000 NA
ATOM     17  C   UNL     1      33.496  -1.057  14.238  0.00  0.00    +0.000 A 
ATOM     18  C   UNL     1      34.500  -1.976  14.491  0.00  0.00    +0.000 A 
ATOM     19  C   UNL     1      35.071  -1.485  15.635  0.00  0.00    +0.000 A 
ATOM     20  C   UNL     1      36.182  -1.927  16.487  0.00  0.00    +0.000 C 
ATOM     21  H   UNL     1      31.853  -0.446  13.066  0.00  0.00    +0.000 HD
ENDBRANCH   1   5
BRANCH   1  11
ATOM      9  C   UNL     1      28.513  -2.155  10.097  0.00  0.00    +0.000 A 
ATOM     11  C   UNL     1      30.882  -2.483  11.501  0.00  0.00    +0.000 A 
ATOM     12  C   UNL     1      29.435  -3.097   9.666  0.00  0.00    +0.000 A 
ATOM     13  C   UNL     1      28.755  -1.373  11.215  0.00  0.00    +0.000 A 
ATOM     14  C   UNL     1      30.626  -3.263  10.372  0.00  0.00    +0.000 A 
ATOM     15  C   UNL     1      29.947  -1.538  11.922  0.00  0.00    +0.000 A 
BRANCH   9   7
ATOM      7  C   UNL     1      27.225  -1.976   9.333  0.00  0.00    +0.000 C 
BRANCH   7   8
ATOM      8  C   UNL     1      27.225  -0.683   8.516  0.00  0.00    +0.000 C 
BRANCH   8  10
ATOM     10  C   UNL     1      26.625  -0.904   7.128  0.00  0.00    +0.000 C 
ATOM     16  C   UNL     1      26.748  -2.355   6.692  0.00  0.00    +0.000 C 
ENDBRANCH   8  10
ENDBRANCH   7   8
ENDBRANCH   9   7
ENDBRANCH   1  11
TORSDOF 5
ENDMDL
MODEL 6
REMARK VINA RESULT:      -7.1      3.873      5.383
REMARK  Name = 562945
REMARK  7 active torsions:
REMARK  status: ('A' for Active; 'I' for Inactive)
REMARK    1  A    between atoms: S_1  and  N_5
REMARK    2  A    between atoms: S_1  and  C_11
REMARK    3  A    between atoms: C_7  and  C_8
REMARK    4  A    between atoms: C_7  and  C_9
REMARK    5  A    between atoms: C_8  and  C_10
REMARK    6  A    between atoms: C_10  and  C_16
REMARK    7  A    between atoms: C_19  and  C_20
REMARK                            x       y       z     vdW  Elec       q    Type
REMARK                         _______ _______ _______ _____ _____    ______ ____
ROOT
ATOM      1  S   UNL     1      32.808   0.567   9.261  0.00  0.00    +0.000 S 
ATOM      2  O   UNL     1      33.489  -0.062   8.135  0.00  0.00    +0.000 OA
ATOM      3  O   UNL     1      33.490   0.628  10.547  0.00  0.00    +0.000 OA
ENDROOT
BRANCH   1   5
ATOM      4  O   UNL     1      33.974   5.205   9.404  0.00  0.00    +0.000 OA
ATOM      5  N   UNL     1      32.336   2.153   8.782  0.00  0.00    +0.000 N 
ATOM      6  N   UNL     1      32.817   4.484   9.136  0.00  0.00    +0.000 NA
ATOM     17  C   UNL     1      33.238   3.239   9.053  0.00  0.00    +0.000 A 
ATOM     18  C   UNL     1      34.599   3.069   9.248  0.00  0.00    +0.000 A 
ATOM     19  C   UNL     1      35.029   4.351   9.468  0.00  0.00    +0.000 A 
ATOM     20  C   UNL     1      36.340   4.950   9.747  0.00  0.00    +0.000 C 
ATOM     21  H   UNL     1      31.337   2.389   8.722  0.00  0.00    +0.000 HD
ENDBRANCH   1   5
BRANCH   1  11
ATOM      9  C   UNL     1      28.846  -1.535   9.820  0.00  0.00    +0.000 A 
ATOM     11  C   UNL     1      31.277  -0.244   9.477  0.00  0.00    +0.000 A 
ATOM     12  C   UNL     1      29.994  -2.085  10.373  0.00  0.00    +0.000 A 
ATOM     13  C   UNL     1      28.893  -0.353   9.098  0.00  0.00    +0.000 A 
ATOM     14  C   UNL     1      31.216  -1.435  10.201  0.00  0.00    +0.000 A 
ATOM     15  C   UNL     1      30.116   0.297   8.925  0.00  0.00    +0.000 A 
BRANCH   9   7
ATOM      7  C   UNL     1      27.525  -2.237  10.007  0.00  0.00    +0.000 C 
BRANCH   7   8
ATOM      8  C   UNL     1      27.196  -3.150   8.825  0.00  0.00    +0.000 C 
BRANCH   8  10
ATOM     10  C   UNL     1      26.189  -2.493   7.881  0.00  0.00    +0.000 C 
ATOM     16  C   UNL     1      26.842  -2.069   6.576  0.00  0.00    +0.000 C 
ENDBRANCH   8  10
ENDBRANCH   7   8
ENDBRANCH   9   7
ENDBRANCH   1  11
TORSDOF 5
ENDMDL
MODEL 7
REMARK VINA RESULT:      -6.9      3.594      7.268
REMARK  Name = 562945
REMARK  7 active torsions:
REMARK  status: ('A' for Active; 'I' for Inactive)
REMARK    1  A    between atoms: S_1  and  N_5
REMARK    2  A    between atoms: S_1  and  C_11
REMARK    3  A    between atoms: C_7  and  C_8
REMARK    4  A    between atoms: C_7  and  C_9
REMARK    5  A    between atoms: C_8  and  C_10
REMARK    6  A    between atoms: C_10  and  C_16
REMARK    7  A    between atoms: C_19  and  C_20
REMARK                            x       y       z     vdW  Elec       q    Type
REMARK                         _______ _______ _______ _____ _____    ______ ____
ROOT
ATOM      1  S   UNL     1      26.314  -2.612   8.787  0.00  0.00    +0.000 S 
ATOM      2  O   UNL     1      26.235  -1.535   7.806  0.00  0.00    +0.000 OA
ATOM      3  O   UNL     1      25.227  -2.766   9.746  0.00  0.00    +0.000 OA
ENDROOT
BRANCH   1   5
ATOM      4  O   UNL     1      24.156  -6.523   7.075  0.00  0.00    +0.000 OA
ATOM      5  N   UNL     1      26.549  -4.092   7.939  0.00  0.00    +0.000 N 
ATOM      6  N   UNL     1      25.467  -6.162   7.361  0.00  0.00    +0.000 NA
ATOM     17  C   UNL     1      25.389  -4.869   7.597  0.00  0.00    +0.000 A 
ATOM     18  C   UNL     1      24.116  -4.333   7.492  0.00  0.00    +0.000 A 
ATOM     19  C   UNL     1      23.361  -5.425   7.156  0.00  0.00    +0.000 A 
ATOM     20  C   UNL     1      21.933  -5.629   6.882  0.00  0.00    +0.000 C 
ATOM     21  H   UNL     1      27.430  -4.609   8.055  0.00  0.00    +0.000 HD
ENDBRANCH   1   5
BRANCH   1  11
ATOM      9  C   UNL     1      30.192  -2.129  11.057  0.00  0.00    +0.000 A 
ATOM     11  C   UNL     1      27.812  -2.425   9.664  0.00  0.00    +0.000 A 
ATOM     12  C   UNL     1      30.101  -3.090  10.061  0.00  0.00    +0.000 A 
ATOM     13  C   UNL     1      29.114  -1.315  11.370  0.00  0.00    +0.000 A 
ATOM     14  C   UNL     1      28.904  -3.238   9.360  0.00  0.00    +0.000 A 
ATOM     15  C   UNL     1      27.917  -1.463  10.670  0.00  0.00    +0.000 A 
BRANCH   9   7
ATOM      7  C   UNL     1      31.486  -1.968  11.815  0.00  0.00    +0.000 C 
BRANCH   7   8
ATOM      8  C   UNL     1      31.477  -2.757  13.125  0.00  0.00    +0.000 C 
BRANCH   8  10
ATOM     10  C   UNL     1      31.990  -4.181  12.919  0.00  0.00    +0.000 C 
ATOM     16  C   UNL     1      33.425  -4.190  12.419  0.00  0.00    +0.000 C 
ENDBRANCH   8  10
ENDBRANCH   7   8
ENDBRANCH   9   7
ENDBRANCH   1  11
TORSDOF 5
ENDMDL
MODEL 8
REMARK VINA RESULT:      -6.9      3.439      4.547
REMARK  Name = 562945
REMARK  7 active torsions:
REMARK  status: ('A' for Active; 'I' for Inactive)
REMARK    1  A    between atoms: S_1  and  N_5
REMARK    2  A    between atoms: S_1  and  C_11
REMARK    3  A    between atoms: C_7  and  C_8
REMARK    4  A    between atoms: C_7  and  C_9
REMARK    5  A    between atoms: C_8  and  C_10
REMARK    6  A    between atoms: C_10  and  C_16
REMARK    7  A    between atoms: C_19  and  C_20
REMARK                            x       y       z     vdW  Elec       q    Type
REMARK                         _______ _______ _______ _____ _____    ______ ____
ROOT
ATOM      1  S   UNL     1      32.333  -2.501  11.767  0.00  0.00    +0.000 S 
ATOM      2  O   UNL     1      33.283  -2.251  10.689  0.00  0.00    +0.000 OA
ATOM      3  O   UNL     1      32.446  -3.738  12.529  0.00  0.00    +0.000 OA
ENDROOT
BRANCH   1   5
ATOM      4  O   UNL     1      34.268  -0.773  15.787  0.00  0.00    +0.000 OA
ATOM      5  N   UNL     1      32.380  -1.155  12.842  0.00  0.00    +0.000 N 
ATOM      6  N   UNL     1      33.158  -0.463  15.011  0.00  0.00    +0.000 NA
ATOM     17  C   UNL     1      33.327  -1.185  13.923  0.00  0.00    +0.000 A 
ATOM     18  C   UNL     1      34.473  -1.962  13.912  0.00  0.00    +0.000 A 
ATOM     19  C   UNL     1      35.044  -1.666  15.121  0.00  0.00    +0.000 A 
ATOM     20  C   UNL     1      36.268  -2.107  15.803  0.00  0.00    +0.000 C 
ATOM     21  H   UNL     1      31.531  -0.594  12.990  0.00  0.00    +0.000 HD
ENDBRANCH   1   5
BRANCH   1  11
ATOM      9  C   UNL     1      28.170  -2.248  10.025  0.00  0.00    +0.000 A 
ATOM     11  C   UNL     1      30.725  -2.403  11.094  0.00  0.00    +0.000 A 
ATOM     12  C   UNL     1      28.523  -1.409  11.071  0.00  0.00    +0.000 A 
ATOM     13  C   UNL     1      29.071  -3.164   9.505  0.00  0.00    +0.000 A 
ATOM     14  C   UNL     1      29.809  -1.486  11.608  0.00  0.00    +0.000 A 
ATOM     15  C   UNL     1      30.357  -3.243  10.042  0.00  0.00    +0.000 A 
BRANCH   9   7
ATOM      7  C   UNL     1      26.782  -2.164   9.444  0.00  0.00    +0.000 C 
BRANCH   7   8
ATOM      8  C   UNL     1      26.644  -3.014   8.180  0.00  0.00    +0.000 C 
BRANCH   8  10
ATOM     10  C   UNL     1      25.709  -4.201   8.409  0.00  0.00    +0.000 C 
ATOM     16  C   UNL     1      24.925  -4.544   7.153  0.00  0.00    +0.000 C 
ENDBRANCH   8  10
ENDBRANCH   7   8
ENDBRANCH   9   7
ENDBRANCH   1  11
TORSDOF 5
ENDMDL
MODEL 9
REMARK VINA RESULT:      -6.9      2.463      3.685
REMARK  Name = 562945
REMARK  7 active torsions:
REMARK  status: ('A' for Active; 'I' for Inactive)
REMARK    1  A    between atoms: S_1  and  N_5
REMARK    2  A    between atoms: S_1  and  C_11
REMARK    3  A    between atoms: C_7  and  C_8
REMARK    4  A    between atoms: C_7  and  C_9
REMARK    5  A    between atoms: C_8  and  C_10
REMARK    6  A    between atoms: C_10  and  C_16
REMARK    7  A    between atoms: C_19  and  C_20
REMARK                            x       y       z     vdW  Elec       q    Type
REMARK                         _______ _______ _______ _____ _____    ______ ____
ROOT
ATOM      1  S   UNL     1      32.620  -1.470  10.323  0.00  0.00    +0.000 S 
ATOM      2  O   UNL     1      33.026  -0.332   9.507  0.00  0.00    +0.000 OA
ATOM      3  O   UNL     1      33.306  -2.743  10.142  0.00  0.00    +0.000 OA
ENDROOT
BRANCH   1   5
ATOM      4  O   UNL     1      32.028  -2.934  14.839  0.00  0.00    +0.000 OA
ATOM      5  N   UNL     1      32.704  -1.000  11.978  0.00  0.00    +0.000 N 
ATOM      6  N   UNL     1      32.110  -1.702  14.201  0.00  0.00    +0.000 NA
ATOM     17  C   UNL     1      32.495  -2.009  12.980  0.00  0.00    +0.000 A 
ATOM     18  C   UNL     1      32.676  -3.363  12.749  0.00  0.00    +0.000 A 
ATOM     19  C   UNL     1      32.368  -3.915  13.964  0.00  0.00    +0.000 A 
ATOM     20  C   UNL     1      32.333  -5.291  14.475  0.00  0.00    +0.000 C 
ATOM     21  H   UNL     1      32.473  -0.034  12.243  0.00  0.00    +0.000 HD
ENDBRANCH   1   5
BRANCH   1  11
ATOM      9  C   UNL     1      28.190  -2.109   9.686  0.00  0.00    +0.000 A 
ATOM     11  C   UNL     1      30.909  -1.717  10.076  0.00  0.00    +0.000 A 
ATOM     12  C   UNL     1      28.671  -0.824   9.896  0.00  0.00    +0.000 A 
ATOM     13  C   UNL     1      29.045  -3.200   9.669  0.00  0.00    +0.000 A 
ATOM     14  C   UNL     1      30.038  -0.628  10.091  0.00  0.00    +0.000 A 
ATOM     15  C   UNL     1      30.412  -3.004   9.866  0.00  0.00    +0.000 A 
BRANCH   9   7
ATOM      7  C   UNL     1      26.713  -2.321   9.474  0.00  0.00    +0.000 C 
BRANCH   7   8
ATOM      8  C   UNL     1      26.440  -3.467   8.498  0.00  0.00    +0.000 C 
BRANCH   8  10
ATOM     10  C   UNL     1      25.007  -3.414   7.968  0.00  0.00    +0.000 C 
ATOM     16  C   UNL     1      24.008  -3.877   9.015  0.00  0.00    +0.000 C 
ENDBRANCH   8  10
ENDBRANCH   7   8
ENDBRANCH   9   7
ENDBRANCH   1  11
TORSDOF 5
ENDMDL
