MODEL 1
REMARK VINA RESULT:      -8.8      0.000      0.000
REMARK  Name = 1949759
REMARK  8 active torsions:
REMARK  status: ('A' for Active; 'I' for Inactive)
REMARK    1  A    between atoms: S_1  and  N_7
REMARK    2  A    between atoms: S_1  and  C_11
REMARK    3  A    between atoms: N_8  and  C_14
REMARK    4  A    between atoms: N_8  and  C_20
REMARK    5  A    between atoms: N_10  and  C_20
REMARK    6  A    between atoms: C_19  and  C_21
REMARK    7  A    between atoms: C_22  and  C_23
REMARK    8  A    between atoms: C_24  and  C_27
REMARK                            x       y       z     vdW  Elec       q    Type
REMARK                         _______ _______ _______ _____ _____    ______ ____
ROOT
ATOM     11  C   UNL     1      27.757  -1.685   8.660  0.00  0.00    +0.000 A 
ATOM     12  C   UNL     1      28.307  -0.458   9.029  0.00  0.00    +0.000 A 
ATOM     13  C   UNL     1      28.270  -2.868   9.192  0.00  0.00    +0.000 A 
ATOM     14  C   UNL     1      29.867  -1.597  10.447  0.00  0.00    +0.000 A 
ATOM     15  C   UNL     1      29.371  -0.413   9.931  0.00  0.00    +0.000 A 
ATOM     16  C   UNL     1      29.334  -2.823  10.092  0.00  0.00    +0.000 A 
ENDROOT
BRANCH  11   1
ATOM      1  S   UNL     1      26.425  -1.741   7.532  0.00  0.00    +0.000 S 
ATOM      3  O   UNL     1      25.859  -0.402   7.430  0.00  0.00    +0.000 OA
ATOM      4  O   UNL     1      26.882  -2.419   6.325  0.00  0.00    +0.000 OA
BRANCH   1   7
ATOM      5  O   UNL     1      24.872  -5.899   6.854  0.00  0.00    +0.000 OA
ATOM      7  N   UNL     1      25.326  -2.751   8.360  0.00  0.00    +0.000 N 
ATOM      9  N   UNL     1      25.469  -4.645   6.882  0.00  0.00    +0.000 NA
ATOM     17  C   UNL     1      24.967  -4.063   7.965  0.00  0.00    +0.000 A 
ATOM     18  C   UNL     1      24.064  -4.872   8.660  0.00  0.00    +0.000 A 
ATOM     19  C   UNL     1      24.038  -6.024   7.918  0.00  0.00    +0.000 A 
ATOM     21  C   UNL     1      23.320  -7.297   8.044  0.00  0.00    +0.000 C 
ATOM     31  H   UNL     1      24.814  -2.354   9.157  0.00  0.00    +0.000 HD
ENDBRANCH   1   7
ENDBRANCH  11   1
BRANCH  14   8
ATOM      8  N   UNL     1      30.949  -1.551  11.363  0.00  0.00    +0.000 N 
ATOM     32  H   UNL     1      30.675  -1.846  12.298  0.00  0.00    +0.000 HD
BRANCH   8  20
ATOM      2  S   UNL     1      33.234  -1.779   9.813  0.00  0.00    +0.000 S 
ATOM     20  C   UNL     1      32.323  -1.460  11.186  0.00  0.00    +0.000 C 
BRANCH  20  10
ATOM      6  O   UNL     1      31.682  -1.746  14.145  0.00  0.00    +0.000 OA
ATOM     10  N   UNL     1      33.032  -1.080  12.344  0.00  0.00    +0.000 N 
ATOM     24  C   UNL     1      32.701  -1.230  13.702  0.00  0.00    +0.000 C 
ATOM     33  H   UNL     1      33.923  -0.633  12.140  0.00  0.00    +0.000 HD
BRANCH  24  27
ATOM     23  C   UNL     1      33.711   0.616  14.962  0.00  0.00    +0.000 C 
ATOM     27  C   UNL     1      33.764  -0.671  14.586  0.00  0.00    +0.000 C 
BRANCH  23  22
ATOM     22  C   UNL     1      34.707   1.277  15.823  0.00  0.00    +0.000 A 
ATOM     25  C   UNL     1      34.754   0.962  17.171  0.00  0.00    +0.000 A 
ATOM     26  C   UNL     1      35.578   2.201  15.268  0.00  0.00    +0.000 A 
ATOM     28  C   UNL     1      35.696   1.588  17.987  0.00  0.00    +0.000 A 
ATOM     29  C   UNL     1      36.521   2.827  16.084  0.00  0.00    +0.000 A 
ATOM     30  C   UNL     1      36.580   2.521  17.443  0.00  0.00    +0.000 A 
ENDBRANCH  23  22
ENDBRANCH  24  27
ENDBRANCH  20  10
ENDBRANCH   8  20
ENDBRANCH  14   8
TORSDOF 7
ENDMDL
MODEL 2
REMARK VINA RESULT:      -8.3      4.201     10.308
REMARK  Name = 1949759
REMARK  8 active torsions:
REMARK  status: ('A' for Active; 'I' for Inactive)
REMARK    1  A    between atoms: S_1  and  N_7
REMARK    2  A    between atoms: S_1  and  C_11
REMARK    3  A    between atoms: N_8  and  C_14
REMARK    4  A    between atoms: N_8  and  C_20
REMARK    5  A    between atoms: N_10  and  C_20
REMARK    6  A    between atoms: C_19  and  C_21
REMARK    7  A    between atoms: C_22  and  C_23
REMARK    8  A    between atoms: C_24  and  C_27
REMARK                            x       y       z     vdW  Elec       q    Type
REMARK                         _______ _______ _______ _____ _____    ______ ____
ROOT
ATOM     11  C   UNL     1      32.523  -3.688  10.867  0.00  0.00    +0.000 A 
ATOM     12  C   UNL     1      31.600  -3.938   9.851  0.00  0.00    +0.000 A 
ATOM     13  C   UNL     1      32.220  -2.771  11.874  0.00  0.00    +0.000 A 
ATOM     14  C   UNL     1      30.093  -2.365  10.849  0.00  0.00    +0.000 A 
ATOM     15  C   UNL     1      30.375  -3.271   9.842  0.00  0.00    +0.000 A 
ATOM     16  C   UNL     1      30.996  -2.104  11.864  0.00  0.00    +0.000 A 
ENDROOT
BRANCH  11   1
ATOM      1  S   UNL     1      34.057  -4.522  10.878  0.00  0.00    +0.000 S 
ATOM      3  O   UNL     1      34.189  -5.248   9.621  0.00  0.00    +0.000 OA
ATOM      4  O   UNL     1      35.088  -3.568  11.267  0.00  0.00    +0.000 OA
BRANCH   1   7
ATOM      5  O   UNL     1      32.191  -8.597  11.152  0.00  0.00    +0.000 OA
ATOM      7  N   UNL     1      33.821  -5.641  12.146  0.00  0.00    +0.000 N 
ATOM      9  N   UNL     1      32.715  -7.345  10.856  0.00  0.00    +0.000 NA
ATOM     17  C   UNL     1      33.193  -6.903  12.013  0.00  0.00    +0.000 A 
ATOM     18  C   UNL     1      33.011  -7.804  13.067  0.00  0.00    +0.000 A 
ATOM     19  C   UNL     1      32.374  -8.860  12.471  0.00  0.00    +0.000 A 
ATOM     21  C   UNL     1      31.876 -10.152  12.959  0.00  0.00    +0.000 C 
ATOM     31  H   UNL     1      34.072  -5.349  13.099  0.00  0.00    +0.000 HD
ENDBRANCH   1   7
ENDBRANCH  11   1
BRANCH  14   8
ATOM      8  N   UNL     1      28.847  -1.687  10.839  0.00  0.00    +0.000 N 
ATOM     32  H   UNL     1      28.547  -1.417  11.773  0.00  0.00    +0.000 HD
BRANCH   8  20
ATOM      2  S   UNL     1      28.081   0.524   9.354  0.00  0.00    +0.000 S 
ATOM     20  C   UNL     1      28.114  -1.088   9.823  0.00  0.00    +0.000 C 
BRANCH  20  10
ATOM      6  O   UNL     1      27.257  -1.206   6.907  0.00  0.00    +0.000 OA
ATOM     10  N   UNL     1      27.262  -1.970   9.127  0.00  0.00    +0.000 N 
ATOM     24  C   UNL     1      26.889  -1.992   7.772  0.00  0.00    +0.000 C 
ATOM     33  H   UNL     1      26.871  -2.699   9.718  0.00  0.00    +0.000 HD
BRANCH  24  27
ATOM     23  C   UNL     1      25.983  -4.221   8.247  0.00  0.00    +0.000 C 
ATOM     27  C   UNL     1      25.956  -3.118   7.483  0.00  0.00    +0.000 C 
BRANCH  23  22
ATOM     22  C   UNL     1      25.116  -5.396   8.050  0.00  0.00    +0.000 A 
ATOM     25  C   UNL     1      25.589  -6.653   8.391  0.00  0.00    +0.000 A 
ATOM     26  C   UNL     1      23.845  -5.222   7.527  0.00  0.00    +0.000 A 
ATOM     28  C   UNL     1      24.769  -7.765   8.203  0.00  0.00    +0.000 A 
ATOM     29  C   UNL     1      23.024  -6.334   7.340  0.00  0.00    +0.000 A 
ATOM     30  C   UNL     1      23.486  -7.606   7.678  0.00  0.00    +0.000 A 
ENDBRANCH  23  22
ENDBRANCH  24  27
ENDBRANCH  20  10
ENDBRANCH   8  20
ENDBRANCH  14   8
TORSDOF 7
ENDMDL
MODEL 3
REMARK VINA RESULT:      -8.0      4.072     12.099
REMARK  Name = 1949759
REMARK  8 active torsions:
REMARK  status: ('A' for Active; 'I' for Inactive)
REMARK    1  A    between atoms: S_1  and  N_7
REMARK    2  A    between atoms: S_1  and  C_11
REMARK    3  A    between atoms: N_8  and  C_14
REMARK    4  A    between atoms: N_8  and  C_20
REMARK    5  A    between atoms: N_10  and  C_20
REMARK    6  A    between atoms: C_19  and  C_21
REMARK    7  A    between atoms: C_22  and  C_23
REMARK    8  A    between atoms: C_24  and  C_27
REMARK                            x       y       z     vdW  Elec       q    Type
REMARK                         _______ _______ _______ _____ _____    ______ ____
ROOT
ATOM     11  C   UNL     1      34.825   0.153  16.167  0.00  0.00    +0.000 A 
ATOM     12  C   UNL     1      35.079  -1.156  15.762  0.00  0.00    +0.000 A 
ATOM     13  C   UNL     1      34.189   1.042  15.300  0.00  0.00    +0.000 A 
ATOM     14  C   UNL     1      34.067  -0.684  13.642  0.00  0.00    +0.000 A 
ATOM     15  C   UNL     1      34.696  -1.579  14.489  0.00  0.00    +0.000 A 
ATOM     16  C   UNL     1      33.807   0.620  14.027  0.00  0.00    +0.000 A 
ENDROOT
BRANCH  11   1
ATOM      1  S   UNL     1      35.304   0.683  17.761  0.00  0.00    +0.000 S 
ATOM      3  O   UNL     1      34.183   0.469  18.667  0.00  0.00    +0.000 OA
ATOM      4  O   UNL     1      36.598   0.084  18.068  0.00  0.00    +0.000 OA
BRANCH   1   7
ATOM      5  O   UNL     1      38.552   3.209  15.964  0.00  0.00    +0.000 OA
ATOM      7  N   UNL     1      35.508   2.359  17.511  0.00  0.00    +0.000 N 
ATOM      9  N   UNL     1      37.676   2.258  16.473  0.00  0.00    +0.000 NA
ATOM     17  C   UNL     1      36.639   2.963  16.910  0.00  0.00    +0.000 A 
ATOM     18  C   UNL     1      36.783   4.339  16.715  0.00  0.00    +0.000 A 
ATOM     19  C   UNL     1      38.009   4.445  16.113  0.00  0.00    +0.000 A 
ATOM     21  C   UNL     1      38.807   5.576  15.625  0.00  0.00    +0.000 C 
ATOM     31  H   UNL     1      34.800   2.994  17.902  0.00  0.00    +0.000 HD
ENDBRANCH   1   7
ENDBRANCH  11   1
BRANCH  14   8
ATOM      8  N   UNL     1      33.679  -1.114  12.347  0.00  0.00    +0.000 N 
ATOM     32  H   UNL     1      34.139  -0.584  11.611  0.00  0.00    +0.000 HD
BRANCH   8  20
ATOM      2  S   UNL     1      33.643  -3.812  11.721  0.00  0.00    +0.000 S 
ATOM     20  C   UNL     1      33.035  -2.257  11.894  0.00  0.00    +0.000 C 
BRANCH  20  10
ATOM      6  O   UNL     1      30.556  -1.444  13.457  0.00  0.00    +0.000 OA
ATOM     10  N   UNL     1      31.697  -2.050  11.497  0.00  0.00    +0.000 N 
ATOM     24  C   UNL     1      30.575  -1.673  12.253  0.00  0.00    +0.000 C 
ATOM     33  H   UNL     1      31.547  -2.198  10.502  0.00  0.00    +0.000 HD
BRANCH  24  27
ATOM     23  C   UNL     1      29.370  -2.065  10.152  0.00  0.00    +0.000 C 
ATOM     27  C   UNL     1      29.354  -1.577  11.402  0.00  0.00    +0.000 C 
BRANCH  23  22
ATOM     22  C   UNL     1      28.229  -2.018   9.221  0.00  0.00    +0.000 A 
ATOM     25  C   UNL     1      27.957  -0.842   8.541  0.00  0.00    +0.000 A 
ATOM     26  C   UNL     1      27.450  -3.150   9.044  0.00  0.00    +0.000 A 
ATOM     28  C   UNL     1      26.876  -0.797   7.660  0.00  0.00    +0.000 A 
ATOM     29  C   UNL     1      26.370  -3.106   8.163  0.00  0.00    +0.000 A 
ATOM     30  C   UNL     1      26.083  -1.929   7.471  0.00  0.00    +0.000 A 
ENDBRANCH  23  22
ENDBRANCH  24  27
ENDBRANCH  20  10
ENDBRANCH   8  20
ENDBRANCH  14   8
TORSDOF 7
ENDMDL
MODEL 4
REMARK VINA RESULT:      -7.9      5.187     10.144
REMARK  Name = 1949759
REMARK  8 active torsions:
REMARK  status: ('A' for Active; 'I' for Inactive)
REMARK    1  A    between atoms: S_1  and  N_7
REMARK    2  A    between atoms: S_1  and  C_11
REMARK    3  A    between atoms: N_8  and  C_14
REMARK    4  A    between atoms: N_8  and  C_20
REMARK    5  A    between atoms: N_10  and  C_20
REMARK    6  A    between atoms: C_19  and  C_21
REMARK    7  A    between atoms: C_22  and  C_23
REMARK    8  A    between atoms: C_24  and  C_27
REMARK                            x       y       z     vdW  Elec       q    Type
REMARK                         _______ _______ _______ _____ _____    ______ ____
ROOT
ATOM     11  C   UNL     1      32.739  -5.598  13.509  0.00  0.00    +0.000 A 
ATOM     12  C   UNL     1      32.564  -4.503  14.355  0.00  0.00    +0.000 A 
ATOM     13  C   UNL     1      32.535  -5.459  12.136  0.00  0.00    +0.000 A 
ATOM     14  C   UNL     1      31.985  -3.150  12.464  0.00  0.00    +0.000 A 
ATOM     15  C   UNL     1      32.185  -3.269  13.828  0.00  0.00    +0.000 A 
ATOM     16  C   UNL     1      32.154  -4.225  11.610  0.00  0.00    +0.000 A 
ENDROOT
BRANCH  11   1
ATOM      1  S   UNL     1      33.214  -7.144  14.168  0.00  0.00    +0.000 S 
ATOM      3  O   UNL     1      34.656  -7.284  14.005  0.00  0.00    +0.000 OA
ATOM      4  O   UNL     1      32.628  -7.269  15.497  0.00  0.00    +0.000 OA
BRANCH   1   7
ATOM      5  O   UNL     1      32.744 -11.606  14.007  0.00  0.00    +0.000 OA
ATOM      7  N   UNL     1      32.425  -8.220  13.104  0.00  0.00    +0.000 N 
ATOM      9  N   UNL     1      33.005 -10.261  14.237  0.00  0.00    +0.000 NA
ATOM     17  C   UNL     1      32.399  -9.629  13.240  0.00  0.00    +0.000 A 
ATOM     18  C   UNL     1      31.744 -10.491  12.355  0.00  0.00    +0.000 A 
ATOM     19  C   UNL     1      31.991 -11.731  12.883  0.00  0.00    +0.000 A 
ATOM     21  C   UNL     1      31.620 -13.095  12.489  0.00  0.00    +0.000 C 
ATOM     31  H   UNL     1      32.007  -7.832  12.249  0.00  0.00    +0.000 HD
ENDBRANCH   1   7
ENDBRANCH  11   1
BRANCH  14   8
ATOM      8  N   UNL     1      31.599  -1.894  11.928  0.00  0.00    +0.000 N 
ATOM     32  H   UNL     1      31.651  -1.148  12.618  0.00  0.00    +0.000 HD
BRANCH   8  20
ATOM      2  S   UNL     1      32.437  -0.427   9.732  0.00  0.00    +0.000 S 
ATOM     20  C   UNL     1      31.441  -1.440  10.626  0.00  0.00    +0.000 C 
BRANCH  20  10
ATOM      6  O   UNL     1      28.564  -0.476  10.837  0.00  0.00    +0.000 OA
ATOM     10  N   UNL     1      30.253  -1.876  10.001  0.00  0.00    +0.000 N 
ATOM     24  C   UNL     1      28.936  -1.402  10.125  0.00  0.00    +0.000 C 
ATOM     33  H   UNL     1      30.399  -2.653   9.361  0.00  0.00    +0.000 HD
BRANCH  24  27
ATOM     23  C   UNL     1      26.728  -2.364   9.660  0.00  0.00    +0.000 C 
ATOM     27  C   UNL     1      27.997  -2.178   9.265  0.00  0.00    +0.000 C 
BRANCH  23  22
ATOM     22  C   UNL     1      25.717  -3.118   8.899  0.00  0.00    +0.000 A 
ATOM     25  C   UNL     1      26.086  -3.750   7.722  0.00  0.00    +0.000 A 
ATOM     26  C   UNL     1      24.417  -3.181   9.373  0.00  0.00    +0.000 A 
ATOM     28  C   UNL     1      25.129  -4.463   7.001  0.00  0.00    +0.000 A 
ATOM     29  C   UNL     1      23.460  -3.894   8.652  0.00  0.00    +0.000 A 
ATOM     30  C   UNL     1      23.816  -4.536   7.465  0.00  0.00    +0.000 A 
ENDBRANCH  23  22
ENDBRANCH  24  27
ENDBRANCH  20  10
ENDBRANCH   8  20
ENDBRANCH  14   8
TORSDOF 7
ENDMDL
MODEL 5
REMARK VINA RESULT:      -7.8      4.174     12.495
REMARK  Name = 1949759
REMARK  8 active torsions:
REMARK  status: ('A' for Active; 'I' for Inactive)
REMARK    1  A    between atoms: S_1  and  N_7
REMARK    2  A    between atoms: S_1  and  C_11
REMARK    3  A    between atoms: N_8  and  C_14
REMARK    4  A    between atoms: N_8  and  C_20
REMARK    5  A    between atoms: N_10  and  C_20
REMARK    6  A    between atoms: C_19  and  C_21
REMARK    7  A    between atoms: C_22  and  C_23
REMARK    8  A    between atoms: C_24  and  C_27
REMARK                            x       y       z     vdW  Elec       q    Type
REMARK                         _______ _______ _______ _____ _____    ______ ____
ROOT
ATOM     11  C   UNL     1      34.882   0.338  16.369  0.00  0.00    +0.000 A 
ATOM     12  C   UNL     1      35.242  -0.937  15.935  0.00  0.00    +0.000 A 
ATOM     13  C   UNL     1      34.174   1.189  15.520  0.00  0.00    +0.000 A 
ATOM     14  C   UNL     1      34.192  -0.504  13.825  0.00  0.00    +0.000 A 
ATOM     15  C   UNL     1      34.894  -1.363  14.653  0.00  0.00    +0.000 A 
ATOM     16  C   UNL     1      33.827   0.765  14.238  0.00  0.00    +0.000 A 
ENDROOT
BRANCH  11   1
ATOM      1  S   UNL     1      35.318   0.871  17.973  0.00  0.00    +0.000 S 
ATOM      3  O   UNL     1      35.764   2.256  17.888  0.00  0.00    +0.000 OA
ATOM      4  O   UNL     1      34.229   0.523  18.878  0.00  0.00    +0.000 OA
BRANCH   1   7
ATOM      5  O   UNL     1      37.765   0.029  21.644  0.00  0.00    +0.000 OA
ATOM      7  N   UNL     1      36.662  -0.129  18.305  0.00  0.00    +0.000 N 
ATOM      9  N   UNL     1      36.893   0.424  20.636  0.00  0.00    +0.000 NA
ATOM     17  C   UNL     1      37.297  -0.250  19.565  0.00  0.00    +0.000 A 
ATOM     18  C   UNL     1      38.397  -1.076  19.814  0.00  0.00    +0.000 A 
ATOM     19  C   UNL     1      38.655  -0.865  21.142  0.00  0.00    +0.000 A 
ATOM     21  C   UNL     1      39.656  -1.390  22.078  0.00  0.00    +0.000 C 
ATOM     31  H   UNL     1      37.105  -0.617  17.517  0.00  0.00    +0.000 HD
ENDBRANCH   1   7
ENDBRANCH  11   1
BRANCH  14   8
ATOM      8  N   UNL     1      33.838  -0.937  12.521  0.00  0.00    +0.000 N 
ATOM     32  H   UNL     1      34.346  -0.434  11.797  0.00  0.00    +0.000 HD
BRANCH   8  20
ATOM      2  S   UNL     1      33.715  -3.648  11.961  0.00  0.00    +0.000 S 
ATOM     20  C   UNL     1      33.171  -2.062  12.057  0.00  0.00    +0.000 C 
BRANCH  20  10
ATOM      6  O   UNL     1      30.488  -1.812  13.468  0.00  0.00    +0.000 OA
ATOM     10  N   UNL     1      31.872  -1.806  11.571  0.00  0.00    +0.000 N 
ATOM     24  C   UNL     1      30.651  -1.697  12.259  0.00  0.00    +0.000 C 
ATOM     33  H   UNL     1      31.839  -1.679  10.563  0.00  0.00    +0.000 HD
BRANCH  24  27
ATOM     23  C   UNL     1      29.266  -2.263  10.315  0.00  0.00    +0.000 C 
ATOM     27  C   UNL     1      29.524  -1.417  11.323  0.00  0.00    +0.000 C 
BRANCH  23  22
ATOM     22  C   UNL     1      28.188  -2.084   9.328  0.00  0.00    +0.000 A 
ATOM     25  C   UNL     1      27.376  -3.159   9.007  0.00  0.00    +0.000 A 
ATOM     26  C   UNL     1      28.006  -0.843   8.738  0.00  0.00    +0.000 A 
ATOM     28  C   UNL     1      26.355  -2.989   8.072  0.00  0.00    +0.000 A 
ATOM     29  C   UNL     1      26.985  -0.673   7.803  0.00  0.00    +0.000 A 
ATOM     30  C   UNL     1      26.159  -1.747   7.470  0.00  0.00    +0.000 A 
ENDBRANCH  23  22
ENDBRANCH  24  27
ENDBRANCH  20  10
ENDBRANCH   8  20
ENDBRANCH  14   8
TORSDOF 7
ENDMDL
MODEL 6
REMARK VINA RESULT:      -7.7      4.352     10.886
REMARK  Name = 1949759
REMARK  8 active torsions:
REMARK  status: ('A' for Active; 'I' for Inactive)
REMARK    1  A    between atoms: S_1  and  N_7
REMARK    2  A    between atoms: S_1  and  C_11
REMARK    3  A    between atoms: N_8  and  C_14
REMARK    4  A    between atoms: N_8  and  C_20
REMARK    5  A    between atoms: N_10  and  C_20
REMARK    6  A    between atoms: C_19  and  C_21
REMARK    7  A    between atoms: C_22  and  C_23
REMARK    8  A    between atoms: C_24  and  C_27
REMARK                            x       y       z     vdW  Elec       q    Type
REMARK                         _______ _______ _______ _____ _____    ______ ____
ROOT
ATOM     11  C   UNL     1      32.319  -4.281  10.729  0.00  0.00    +0.000 A 
ATOM     12  C   UNL     1      31.389  -4.107   9.705  0.00  0.00    +0.000 A 
ATOM     13  C   UNL     1      32.218  -3.527  11.899  0.00  0.00    +0.000 A 
ATOM     14  C   UNL     1      30.272  -2.442  11.017  0.00  0.00    +0.000 A 
ATOM     15  C   UNL     1      30.356  -3.181   9.850  0.00  0.00    +0.000 A 
ATOM     16  C   UNL     1      31.186  -2.600  12.043  0.00  0.00    +0.000 A 
ENDROOT
BRANCH  11   1
ATOM      1  S   UNL     1      33.612  -5.440  10.547  0.00  0.00    +0.000 S 
ATOM      3  O   UNL     1      34.566  -5.231  11.629  0.00  0.00    +0.000 OA
ATOM      4  O   UNL     1      33.016  -6.758  10.361  0.00  0.00    +0.000 OA
BRANCH   1   7
ATOM      5  O   UNL     1      35.460  -1.604   9.123  0.00  0.00    +0.000 OA
ATOM      7  N   UNL     1      34.315  -4.932   9.077  0.00  0.00    +0.000 N 
ATOM      9  N   UNL     1      34.857  -2.687   9.752  0.00  0.00    +0.000 NA
ATOM     17  C   UNL     1      34.852  -3.644   8.832  0.00  0.00    +0.000 A 
ATOM     18  C   UNL     1      35.424  -3.250   7.620  0.00  0.00    +0.000 A 
ATOM     19  C   UNL     1      35.794  -1.952   7.854  0.00  0.00    +0.000 A 
ATOM     21  C   UNL     1      36.446  -0.919   7.039  0.00  0.00    +0.000 C 
ATOM     31  H   UNL     1      34.272  -5.573   8.275  0.00  0.00    +0.000 HD
ENDBRANCH   1   7
ENDBRANCH  11   1
BRANCH  14   8
ATOM      8  N   UNL     1      29.222  -1.499  11.164  0.00  0.00    +0.000 N 
ATOM     32  H   UNL     1      29.303  -0.964  12.026  0.00  0.00    +0.000 HD
BRANCH   8  20
ATOM      2  S   UNL     1      28.185   0.574   9.647  0.00  0.00    +0.000 S 
ATOM     20  C   UNL     1      28.296  -0.981  10.269  0.00  0.00    +0.000 C 
BRANCH  20  10
ATOM      6  O   UNL     1      27.482  -2.029   7.532  0.00  0.00    +0.000 OA
ATOM     10  N   UNL     1      27.302  -1.898   9.869  0.00  0.00    +0.000 N 
ATOM     24  C   UNL     1      26.955  -2.359   8.588  0.00  0.00    +0.000 C 
ATOM     33  H   UNL     1      26.768  -2.275  10.648  0.00  0.00    +0.000 HD
BRANCH  24  27
ATOM     23  C   UNL     1      25.514  -4.061   7.565  0.00  0.00    +0.000 C 
ATOM     27  C   UNL     1      25.827  -3.333   8.648  0.00  0.00    +0.000 C 
BRANCH  23  22
ATOM     22  C   UNL     1      24.419  -5.044   7.506  0.00  0.00    +0.000 A 
ATOM     25  C   UNL     1      23.120  -4.602   7.315  0.00  0.00    +0.000 A 
ATOM     26  C   UNL     1      24.707  -6.392   7.645  0.00  0.00    +0.000 A 
ATOM     28  C   UNL     1      22.082  -5.532   7.260  0.00  0.00    +0.000 A 
ATOM     29  C   UNL     1      23.670  -7.323   7.590  0.00  0.00    +0.000 A 
ATOM     30  C   UNL     1      22.357  -6.893   7.398  0.00  0.00    +0.000 A 
ENDBRANCH  23  22
ENDBRANCH  24  27
ENDBRANCH  20  10
ENDBRANCH   8  20
ENDBRANCH  14   8
TORSDOF 7
ENDMDL
MODEL 7
REMARK VINA RESULT:      -7.6      5.493     11.815
REMARK  Name = 1949759
REMARK  8 active torsions:
REMARK  status: ('A' for Active; 'I' for Inactive)
REMARK    1  A    between atoms: S_1  and  N_7
REMARK    2  A    between atoms: S_1  and  C_11
REMARK    3  A    between atoms: N_8  and  C_14
REMARK    4  A    between atoms: N_8  and  C_20
REMARK    5  A    between atoms: N_10  and  C_20
REMARK    6  A    between atoms: C_19  and  C_21
REMARK    7  A    between atoms: C_22  and  C_23
REMARK    8  A    between atoms: C_24  and  C_27
REMARK                            x       y       z     vdW  Elec       q    Type
REMARK                         _______ _______ _______ _____ _____    ______ ____
ROOT
ATOM     11  C   UNL     1      34.191   1.551   9.202  0.00  0.00    +0.000 A 
ATOM     12  C   UNL     1      34.286   0.369   9.936  0.00  0.00    +0.000 A 
ATOM     13  C   UNL     1      32.998   1.877   8.557  0.00  0.00    +0.000 A 
ATOM     14  C   UNL     1      32.014  -0.148   9.378  0.00  0.00    +0.000 A 
ATOM     15  C   UNL     1      33.189  -0.487  10.025  0.00  0.00    +0.000 A 
ATOM     16  C   UNL     1      31.901   1.021   8.645  0.00  0.00    +0.000 A 
ENDROOT
BRANCH  11   1
ATOM      1  S   UNL     1      35.565   2.623   9.091  0.00  0.00    +0.000 S 
ATOM      3  O   UNL     1      35.697   3.327  10.360  0.00  0.00    +0.000 OA
ATOM      4  O   UNL     1      36.694   1.860   8.573  0.00  0.00    +0.000 OA
BRANCH   1   7
ATOM      5  O   UNL     1      37.518   5.987   6.848  0.00  0.00    +0.000 OA
ATOM      7  N   UNL     1      35.037   3.722   7.896  0.00  0.00    +0.000 N 
ATOM      9  N   UNL     1      37.107   4.922   7.640  0.00  0.00    +0.000 NA
ATOM     17  C   UNL     1      35.836   4.732   7.307  0.00  0.00    +0.000 A 
ATOM     18  C   UNL     1      35.382   5.621   6.328  0.00  0.00    +0.000 A 
ATOM     19  C   UNL     1      36.482   6.394   6.070  0.00  0.00    +0.000 A 
ATOM     21  C   UNL     1      36.744   7.519   5.165  0.00  0.00    +0.000 C 
ATOM     31  H   UNL     1      34.041   3.715   7.641  0.00  0.00    +0.000 HD
ENDBRANCH   1   7
ENDBRANCH  11   1
BRANCH  14   8
ATOM      8  N   UNL     1      30.898  -1.019   9.468  0.00  0.00    +0.000 N 
ATOM     32  H   UNL     1      30.620  -1.385   8.561  0.00  0.00    +0.000 HD
BRANCH   8  20
ATOM      2  S   UNL     1      30.926  -1.970  12.071  0.00  0.00    +0.000 S 
ATOM     20  C   UNL     1      30.305  -1.673  10.540  0.00  0.00    +0.000 C 
BRANCH  20  10
ATOM      6  O   UNL     1      27.875  -0.429   9.199  0.00  0.00    +0.000 OA
ATOM     10  N   UNL     1      29.017  -2.180  10.268  0.00  0.00    +0.000 N 
ATOM     24  C   UNL     1      27.916  -1.571   9.643  0.00  0.00    +0.000 C 
ATOM     33  H   UNL     1      28.891  -3.140  10.578  0.00  0.00    +0.000 HD
BRANCH  24  27
ATOM     23  C   UNL     1      26.443  -3.103   8.416  0.00  0.00    +0.000 C 
ATOM     27  C   UNL     1      26.749  -2.498   9.574  0.00  0.00    +0.000 C 
BRANCH  23  22
ATOM     22  C   UNL     1      25.312  -4.028   8.230  0.00  0.00    +0.000 A 
ATOM     25  C   UNL     1      24.020  -3.528   8.230  0.00  0.00    +0.000 A 
ATOM     26  C   UNL     1      25.562  -5.380   8.060  0.00  0.00    +0.000 A 
ATOM     28  C   UNL     1      22.949  -4.405   8.054  0.00  0.00    +0.000 A 
ATOM     29  C   UNL     1      24.491  -6.257   7.884  0.00  0.00    +0.000 A 
ATOM     30  C   UNL     1      23.184  -5.768   7.881  0.00  0.00    +0.000 A 
ENDBRANCH  23  22
ENDBRANCH  24  27
ENDBRANCH  20  10
ENDBRANCH   8  20
ENDBRANCH  14   8
TORSDOF 7
ENDMDL
MODEL 8
REMARK VINA RESULT:      -7.5      7.719     11.525
REMARK  Name = 1949759
REMARK  8 active torsions:
REMARK  status: ('A' for Active; 'I' for Inactive)
REMARK    1  A    between atoms: S_1  and  N_7
REMARK    2  A    between atoms: S_1  and  C_11
REMARK    3  A    between atoms: N_8  and  C_14
REMARK    4  A    between atoms: N_8  and  C_20
REMARK    5  A    between atoms: N_10  and  C_20
REMARK    6  A    between atoms: C_19  and  C_21
REMARK    7  A    between atoms: C_22  and  C_23
REMARK    8  A    between atoms: C_24  and  C_27
REMARK                            x       y       z     vdW  Elec       q    Type
REMARK                         _______ _______ _______ _____ _____    ______ ____
ROOT
ATOM     11  C   UNL     1      37.096   1.311   5.867  0.00  0.00    +0.000 A 
ATOM     12  C   UNL     1      36.870   2.566   6.431  0.00  0.00    +0.000 A 
ATOM     13  C   UNL     1      36.323   0.219   6.262  0.00  0.00    +0.000 A 
ATOM     14  C   UNL     1      35.113   1.635   7.769  0.00  0.00    +0.000 A 
ATOM     15  C   UNL     1      35.869   2.730   7.389  0.00  0.00    +0.000 A 
ATOM     16  C   UNL     1      35.323   0.382   7.220  0.00  0.00    +0.000 A 
ENDROOT
BRANCH  11   1
ATOM      1  S   UNL     1      38.348   1.105   4.668  0.00  0.00    +0.000 S 
ATOM      3  O   UNL     1      38.799   2.427   4.250  0.00  0.00    +0.000 OA
ATOM      4  O   UNL     1      39.318   0.147   5.184  0.00  0.00    +0.000 OA
BRANCH   1   7
ATOM      5  O   UNL     1      39.402  -0.219   0.508  0.00  0.00    +0.000 OA
ATOM      7  N   UNL     1      37.474   0.385   3.390  0.00  0.00    +0.000 N 
ATOM      9  N   UNL     1      39.285   0.251   1.811  0.00  0.00    +0.000 NA
ATOM     17  C   UNL     1      38.012   0.040   2.127  0.00  0.00    +0.000 A 
ATOM     18  C   UNL     1      37.277  -0.551   1.095  0.00  0.00    +0.000 A 
ATOM     19  C   UNL     1      38.200  -0.695   0.093  0.00  0.00    +0.000 A 
ATOM     21  C   UNL     1      38.143  -1.235  -1.270  0.00  0.00    +0.000 C 
ATOM     31  H   UNL     1      36.460   0.269   3.506  0.00  0.00    +0.000 HD
ENDBRANCH   1   7
ENDBRANCH  11   1
BRANCH  14   8
ATOM      8  N   UNL     1      34.096   1.802   8.744  0.00  0.00    +0.000 N 
ATOM     32  H   UNL     1      33.675   2.728   8.708  0.00  0.00    +0.000 HD
BRANCH   8  20
ATOM      2  S   UNL     1      33.877   0.091  10.912  0.00  0.00    +0.000 S 
ATOM     20  C   UNL     1      33.388   0.896   9.523  0.00  0.00    +0.000 C 
BRANCH  20  10
ATOM      6  O   UNL     1      31.161   2.679   8.467  0.00  0.00    +0.000 OA
ATOM     10  N   UNL     1      32.096   0.603   9.040  0.00  0.00    +0.000 N 
ATOM     24  C   UNL     1      31.091   1.458   8.558  0.00  0.00    +0.000 C 
ATOM     33  H   UNL     1      31.883  -0.392   9.046  0.00  0.00    +0.000 HD
BRANCH  24  27
ATOM     23  C   UNL     1      29.313  -0.170   9.010  0.00  0.00    +0.000 C 
ATOM     27  C   UNL     1      29.876   0.695   8.153  0.00  0.00    +0.000 C 
BRANCH  23  22
ATOM     22  C   UNL     1      28.119  -0.982   8.716  0.00  0.00    +0.000 A 
ATOM     25  C   UNL     1      27.424  -0.764   7.538  0.00  0.00    +0.000 A 
ATOM     26  C   UNL     1      27.714  -1.948   9.624  0.00  0.00    +0.000 A 
ATOM     28  C   UNL     1      26.294  -1.532   7.259  0.00  0.00    +0.000 A 
ATOM     29  C   UNL     1      26.584  -2.716   9.345  0.00  0.00    +0.000 A 
ATOM     30  C   UNL     1      25.874  -2.508   8.163  0.00  0.00    +0.000 A 
ENDBRANCH  23  22
ENDBRANCH  24  27
ENDBRANCH  20  10
ENDBRANCH   8  20
ENDBRANCH  14   8
TORSDOF 7
ENDMDL
MODEL 9
REMARK VINA RESULT:      -7.3      6.792      9.073
REMARK  Name = 1949759
REMARK  8 active torsions:
REMARK  status: ('A' for Active; 'I' for Inactive)
REMARK    1  A    between atoms: S_1  and  N_7
REMARK    2  A    between atoms: S_1  and  C_11
REMARK    3  A    between atoms: N_8  and  C_14
REMARK    4  A    between atoms: N_8  and  C_20
REMARK    5  A    between atoms: N_10  and  C_20
REMARK    6  A    between atoms: C_19  and  C_21
REMARK    7  A    between atoms: C_22  and  C_23
REMARK    8  A    between atoms: C_24  and  C_27
REMARK                            x       y       z     vdW  Elec       q    Type
REMARK                         _______ _______ _______ _____ _____    ______ ____
ROOT
ATOM     11  C   UNL     1      32.071  -3.547  12.738  0.00  0.00    +0.000 A 
ATOM     12  C   UNL     1      32.099  -4.304  13.908  0.00  0.00    +0.000 A 
ATOM     13  C   UNL     1      32.216  -4.171  11.499  0.00  0.00    +0.000 A 
ATOM     14  C   UNL     1      32.414  -6.289  12.602  0.00  0.00    +0.000 A 
ATOM     15  C   UNL     1      32.271  -5.687  13.840  0.00  0.00    +0.000 A 
ATOM     16  C   UNL     1      32.389  -5.553  11.430  0.00  0.00    +0.000 A 
ENDROOT
BRANCH  11   1
ATOM      1  S   UNL     1      31.855  -1.816  12.823  0.00  0.00    +0.000 S 
ATOM      3  O   UNL     1      32.022  -1.405  14.211  0.00  0.00    +0.000 OA
ATOM      4  O   UNL     1      32.683  -1.205  11.790  0.00  0.00    +0.000 OA
BRANCH   1   7
ATOM      5  O   UNL     1      29.710  -0.656   9.053  0.00  0.00    +0.000 OA
ATOM      7  N   UNL     1      30.212  -1.661  12.388  0.00  0.00    +0.000 N 
ATOM      9  N   UNL     1      30.556  -0.983  10.105  0.00  0.00    +0.000 NA
ATOM     17  C   UNL     1      29.739  -1.272  11.111  0.00  0.00    +0.000 A 
ATOM     18  C   UNL     1      28.387  -1.152  10.778  0.00  0.00    +0.000 A 
ATOM     19  C   UNL     1      28.420  -0.761   9.465  0.00  0.00    +0.000 A 
ATOM     21  C   UNL     1      27.386  -0.448   8.472  0.00  0.00    +0.000 C 
ATOM     31  H   UNL     1      29.505  -1.771  13.126  0.00  0.00    +0.000 HD
ENDBRANCH   1   7
ENDBRANCH  11   1
BRANCH  14   8
ATOM      8  N   UNL     1      32.590  -7.695  12.533  0.00  0.00    +0.000 N 
ATOM     32  H   UNL     1      32.384  -8.064  11.607  0.00  0.00    +0.000 HD
BRANCH   8  20
ATOM      2  S   UNL     1      34.818  -9.152  13.298  0.00  0.00    +0.000 S 
ATOM     20  C   UNL     1      33.235  -8.600  13.365  0.00  0.00    +0.000 C 
BRANCH  20  10
ATOM      6  O   UNL     1      31.544 -11.126  13.472  0.00  0.00    +0.000 OA
ATOM     10  N   UNL     1      32.415  -9.142  14.376  0.00  0.00    +0.000 N 
ATOM     24  C   UNL     1      31.646 -10.319  14.388  0.00  0.00    +0.000 C 
ATOM     33  H   UNL     1      32.397  -8.579  15.222  0.00  0.00    +0.000 HD
BRANCH  24  27
ATOM     23  C   UNL     1      31.116  -9.597  16.671  0.00  0.00    +0.000 C 
ATOM     27  C   UNL     1      30.933 -10.489  15.686  0.00  0.00    +0.000 C 
BRANCH  23  22
ATOM     22  C   UNL     1      30.472  -9.669  17.995  0.00  0.00    +0.000 A 
ATOM     25  C   UNL     1      30.206  -8.497  18.684  0.00  0.00    +0.000 A 
ATOM     26  C   UNL     1      30.146 -10.907  18.525  0.00  0.00    +0.000 A 
ATOM     28  C   UNL     1      29.597  -8.565  19.937  0.00  0.00    +0.000 A 
ATOM     29  C   UNL     1      29.537 -10.975  19.778  0.00  0.00    +0.000 A 
ATOM     30  C   UNL     1      29.263  -9.804  20.484  0.00  0.00    +0.000 A 
ENDBRANCH  23  22
ENDBRANCH  24  27
ENDBRANCH  20  10
ENDBRANCH   8  20
ENDBRANCH  14   8
TORSDOF 7
ENDMDL
