MODEL 1
REMARK VINA RESULT:      -9.5      0.000      0.000
REMARK  Name = 1181036
REMARK  5 active torsions:
REMARK  status: ('A' for Active; 'I' for Inactive)
REMARK    1  A    between atoms: S_1  and  N_7
REMARK    2  A    between atoms: S_1  and  C_19
REMARK    3  A    between atoms: N_6  and  C_16
REMARK    4  A    between atoms: C_9  and  C_15
REMARK    5  A    between atoms: C_24  and  C_25
REMARK                            x       y       z     vdW  Elec       q    Type
REMARK                         _______ _______ _______ _____ _____    ______ ____
ROOT
ATOM     16  C   UNL     1      25.858  -2.962   8.125  0.00  0.00    +0.000 A 
ATOM     17  C   UNL     1      26.353  -2.111   7.150  0.00  0.00    +0.000 A 
ATOM     18  C   UNL     1      26.353  -2.944   9.419  0.00  0.00    +0.000 A 
ATOM     19  C   UNL     1      27.880  -1.185   8.777  0.00  0.00    +0.000 A 
ATOM     20  C   UNL     1      27.372  -1.217   7.480  0.00  0.00    +0.000 A 
ATOM     21  C   UNL     1      27.372  -2.049   9.748  0.00  0.00    +0.000 A 
ENDROOT
BRANCH  16   6
ATOM      2  O   UNL     1      25.974  -5.894   7.446  0.00  0.00    +0.000 OA
ATOM      6  N   UNL     1      24.825  -3.870   7.793  0.00  0.00    +0.000 N 
ATOM     15  C   UNL     1      24.951  -5.219   7.487  0.00  0.00    +0.000 C 
ATOM     26  H   UNL     1      23.902  -3.447   7.731  0.00  0.00    +0.000 HD
BRANCH  15   9
ATOM      9  C   UNL     1      23.613  -5.834   7.190  0.00  0.00    +0.000 C 
ATOM     10  C   UNL     1      23.624  -7.337   7.473  0.00  0.00    +0.000 C 
ATOM     11  C   UNL     1      22.513  -5.096   7.955  0.00  0.00    +0.000 C 
ATOM     12  C   UNL     1      23.555  -7.677   8.961  0.00  0.00    +0.000 C 
ATOM     13  C   UNL     1      22.474  -5.452   9.441  0.00  0.00    +0.000 C 
ATOM     14  C   UNL     1      22.403  -6.960   9.655  0.00  0.00    +0.000 C 
ENDBRANCH  15   9
ENDBRANCH  16   6
BRANCH  19   1
ATOM      1  S   UNL     1      29.157  -0.067   9.188  0.00  0.00    +0.000 S 
ATOM      3  O   UNL     1      28.737   0.670  10.375  0.00  0.00    +0.000 OA
ATOM      4  O   UNL     1      29.525   0.681   7.991  0.00  0.00    +0.000 OA
BRANCH   1   7
ATOM      5  O   UNL     1      30.282  -1.578  13.120  0.00  0.00    +0.000 OA
ATOM      7  N   UNL     1      30.452  -1.112   9.636  0.00  0.00    +0.000 N 
ATOM      8  N   UNL     1      29.686  -1.231  11.914  0.00  0.00    +0.000 NA
ATOM     22  C   UNL     1      30.655  -1.376  11.035  0.00  0.00    +0.000 A 
ATOM     23  C   UNL     1      31.863  -1.799  11.563  0.00  0.00    +0.000 A 
ATOM     24  C   UNL     1      31.579  -1.915  12.899  0.00  0.00    +0.000 A 
ATOM     25  C   UNL     1      32.364  -2.312  14.073  0.00  0.00    +0.000 C 
ATOM     27  H   UNL     1      31.271  -1.192   9.020  0.00  0.00    +0.000 HD
ENDBRANCH   1   7
ENDBRANCH  19   1
TORSDOF 4
ENDMDL
MODEL 2
REMARK VINA RESULT:      -9.3      2.055      2.630
REMARK  Name = 1181036
REMARK  5 active torsions:
REMARK  status: ('A' for Active; 'I' for Inactive)
REMARK    1  A    between atoms: S_1  and  N_7
REMARK    2  A    between atoms: S_1  and  C_19
REMARK    3  A    between atoms: N_6  and  C_16
REMARK    4  A    between atoms: C_9  and  C_15
REMARK    5  A    between atoms: C_24  and  C_25
REMARK                            x       y       z     vdW  Elec       q    Type
REMARK                         _______ _______ _______ _____ _____    ______ ____
ROOT
ATOM     16  C   UNL     1      26.423  -3.079   8.028  0.00  0.00    +0.000 A 
ATOM     17  C   UNL     1      26.436  -1.976   7.190  0.00  0.00    +0.000 A 
ATOM     18  C   UNL     1      27.230  -3.141   9.152  0.00  0.00    +0.000 A 
ATOM     19  C   UNL     1      28.098  -0.952   8.612  0.00  0.00    +0.000 A 
ATOM     20  C   UNL     1      27.280  -0.905   7.485  0.00  0.00    +0.000 A 
ATOM     21  C   UNL     1      28.074  -2.070   9.446  0.00  0.00    +0.000 A 
ENDROOT
BRANCH  16   6
ATOM      2  O   UNL     1      23.503  -3.494   8.636  0.00  0.00    +0.000 OA
ATOM      6  N   UNL     1      25.567  -4.166   7.730  0.00  0.00    +0.000 N 
ATOM     15  C   UNL     1      24.220  -4.293   8.044  0.00  0.00    +0.000 C 
ATOM     26  H   UNL     1      26.031  -4.949   7.276  0.00  0.00    +0.000 HD
BRANCH  15   9
ATOM      9  C   UNL     1      23.670  -5.600   7.551  0.00  0.00    +0.000 C 
ATOM     10  C   UNL     1      24.774  -6.654   7.444  0.00  0.00    +0.000 C 
ATOM     11  C   UNL     1      22.507  -6.049   8.437  0.00  0.00    +0.000 C 
ATOM     12  C   UNL     1      25.197  -7.232   8.794  0.00  0.00    +0.000 C 
ATOM     13  C   UNL     1      22.962  -6.617   9.781  0.00  0.00    +0.000 C 
ATOM     14  C   UNL     1      24.000  -7.719   9.603  0.00  0.00    +0.000 C 
ENDBRANCH  15   9
ENDBRANCH  16   6
BRANCH  19   1
ATOM      1  S   UNL     1      29.156   0.388   8.980  0.00  0.00    +0.000 S 
ATOM      3  O   UNL     1      28.513   1.192  10.012  0.00  0.00    +0.000 OA
ATOM      4  O   UNL     1      29.547   1.030   7.730  0.00  0.00    +0.000 OA
BRANCH   1   7
ATOM      5  O   UNL     1      33.399   1.290   8.533  0.00  0.00    +0.000 OA
ATOM      7  N   UNL     1      30.526  -0.388   9.681  0.00  0.00    +0.000 N 
ATOM      8  N   UNL     1      32.031   1.259   8.780  0.00  0.00    +0.000 NA
ATOM     22  C   UNL     1      31.834   0.058   9.283  0.00  0.00    +0.000 A 
ATOM     23  C   UNL     1      32.972  -0.723   9.393  0.00  0.00    +0.000 A 
ATOM     24  C   UNL     1      33.949   0.104   8.903  0.00  0.00    +0.000 A 
ATOM     25  C   UNL     1      35.397  -0.036   8.711  0.00  0.00    +0.000 C 
ATOM     27  H   UNL     1      30.442  -1.358  10.010  0.00  0.00    +0.000 HD
ENDBRANCH   1   7
ENDBRANCH  19   1
TORSDOF 4
ENDMDL
MODEL 3
REMARK VINA RESULT:      -7.8      4.869      7.121
REMARK  Name = 1181036
REMARK  5 active torsions:
REMARK  status: ('A' for Active; 'I' for Inactive)
REMARK    1  A    between atoms: S_1  and  N_7
REMARK    2  A    between atoms: S_1  and  C_19
REMARK    3  A    between atoms: N_6  and  C_16
REMARK    4  A    between atoms: C_9  and  C_15
REMARK    5  A    between atoms: C_24  and  C_25
REMARK                            x       y       z     vdW  Elec       q    Type
REMARK                         _______ _______ _______ _____ _____    ______ ____
ROOT
ATOM     16  C   UNL     1      30.981  -3.235  10.491  0.00  0.00    +0.000 A 
ATOM     17  C   UNL     1      31.505  -3.880   9.383  0.00  0.00    +0.000 A 
ATOM     18  C   UNL     1      31.654  -3.219  11.702  0.00  0.00    +0.000 A 
ATOM     19  C   UNL     1      33.426  -4.520  10.700  0.00  0.00    +0.000 A 
ATOM     20  C   UNL     1      32.737  -4.527   9.489  0.00  0.00    +0.000 A 
ATOM     21  C   UNL     1      32.886  -3.865  11.807  0.00  0.00    +0.000 A 
ENDROOT
BRANCH  16   6
ATOM      2  O   UNL     1      30.270  -0.562   9.300  0.00  0.00    +0.000 OA
ATOM      6  N   UNL     1      29.732  -2.579  10.385  0.00  0.00    +0.000 N 
ATOM     15  C   UNL     1      29.474  -1.337   9.820  0.00  0.00    +0.000 C 
ATOM     26  H   UNL     1      28.961  -3.076  10.824  0.00  0.00    +0.000 HD
BRANCH  15   9
ATOM      9  C   UNL     1      28.014  -0.996   9.905  0.00  0.00    +0.000 C 
ATOM     10  C   UNL     1      27.598  -0.074   8.758  0.00  0.00    +0.000 C 
ATOM     11  C   UNL     1      27.178  -2.275   9.969  0.00  0.00    +0.000 C 
ATOM     12  C   UNL     1      27.449  -0.796   7.419  0.00  0.00    +0.000 C 
ATOM     13  C   UNL     1      27.053  -2.977   8.617  0.00  0.00    +0.000 C 
ATOM     14  C   UNL     1      26.556  -2.026   7.534  0.00  0.00    +0.000 C 
ENDBRANCH  15   9
ENDBRANCH  16   6
BRANCH  19   1
ATOM      1  S   UNL     1      34.967  -5.331  10.833  0.00  0.00    +0.000 S 
ATOM      3  O   UNL     1      35.944  -4.355  11.302  0.00  0.00    +0.000 OA
ATOM      4  O   UNL     1      35.228  -6.043   9.587  0.00  0.00    +0.000 OA
BRANCH   1   7
ATOM      5  O   UNL     1      32.742  -9.080  10.776  0.00  0.00    +0.000 OA
ATOM      7  N   UNL     1      34.693  -6.466  12.100  0.00  0.00    +0.000 N 
ATOM      8  N   UNL     1      33.610  -8.008  10.603  0.00  0.00    +0.000 NA
ATOM     22  C   UNL     1      33.830  -7.585  11.830  0.00  0.00    +0.000 A 
ATOM     23  C   UNL     1      33.174  -8.297  12.820  0.00  0.00    +0.000 A 
ATOM     24  C   UNL     1      32.490  -9.243  12.101  0.00  0.00    +0.000 A 
ATOM     25  C   UNL     1      31.586 -10.340  12.467  0.00  0.00    +0.000 C 
ATOM     27  H   UNL     1      34.770  -6.159  13.077  0.00  0.00    +0.000 HD
ENDBRANCH   1   7
ENDBRANCH  19   1
TORSDOF 4
ENDMDL
MODEL 4
REMARK VINA RESULT:      -7.7     12.074     15.684
REMARK  Name = 1181036
REMARK  5 active torsions:
REMARK  status: ('A' for Active; 'I' for Inactive)
REMARK    1  A    between atoms: S_1  and  N_7
REMARK    2  A    between atoms: S_1  and  C_19
REMARK    3  A    between atoms: N_6  and  C_16
REMARK    4  A    between atoms: C_9  and  C_15
REMARK    5  A    between atoms: C_24  and  C_25
REMARK                            x       y       z     vdW  Elec       q    Type
REMARK                         _______ _______ _______ _____ _____    ______ ____
ROOT
ATOM     16  C   UNL     1      29.396 -11.828   2.212  0.00  0.00    +0.000 A 
ATOM     17  C   UNL     1      28.179 -12.471   2.370  0.00  0.00    +0.000 A 
ATOM     18  C   UNL     1      30.595 -12.515   2.320  0.00  0.00    +0.000 A 
ATOM     19  C   UNL     1      29.358 -14.544   2.753  0.00  0.00    +0.000 A 
ATOM     20  C   UNL     1      28.161 -13.839   2.642  0.00  0.00    +0.000 A 
ATOM     21  C   UNL     1      30.576 -13.883   2.592  0.00  0.00    +0.000 A 
ENDROOT
BRANCH  16   6
ATOM      2  O   UNL     1      31.306 -10.190   0.559  0.00  0.00    +0.000 OA
ATOM      6  N   UNL     1      29.416 -10.440   1.936  0.00  0.00    +0.000 N 
ATOM     15  C   UNL     1      30.334  -9.746   1.160  0.00  0.00    +0.000 C 
ATOM     26  H   UNL     1      28.691  -9.910   2.413  0.00  0.00    +0.000 HD
BRANCH  15   9
ATOM      9  C   UNL     1      30.006  -8.281   1.114  0.00  0.00    +0.000 C 
ATOM     10  C   UNL     1      31.070  -7.504   0.338  0.00  0.00    +0.000 C 
ATOM     11  C   UNL     1      28.597  -8.075   0.554  0.00  0.00    +0.000 C 
ATOM     12  C   UNL     1      30.964  -7.672  -1.177  0.00  0.00    +0.000 C 
ATOM     13  C   UNL     1      28.522  -8.256  -0.961  0.00  0.00    +0.000 C 
ATOM     14  C   UNL     1      29.553  -7.393  -1.682  0.00  0.00    +0.000 C 
ENDBRANCH  15   9
ENDBRANCH  16   6
BRANCH  19   1
ATOM      1  S   UNL     1      29.335 -16.257   3.096  0.00  0.00    +0.000 S 
ATOM      3  O   UNL     1      28.445 -16.470   4.232  0.00  0.00    +0.000 OA
ATOM      4  O   UNL     1      30.710 -16.734   3.182  0.00  0.00    +0.000 OA
BRANCH   1   7
ATOM      5  O   UNL     1      28.580 -20.419   2.040  0.00  0.00    +0.000 OA
ATOM      7  N   UNL     1      28.582 -16.917   1.694  0.00  0.00    +0.000 N 
ATOM      8  N   UNL     1      28.658 -19.147   2.594  0.00  0.00    +0.000 NA
ATOM     22  C   UNL     1      28.549 -18.348   1.554  0.00  0.00    +0.000 A 
ATOM     23  C   UNL     1      28.403 -18.991   0.336  0.00  0.00    +0.000 A 
ATOM     24  C   UNL     1      28.428 -20.314   0.694  0.00  0.00    +0.000 A 
ATOM     25  C   UNL     1      28.327 -21.572  -0.055  0.00  0.00    +0.000 C 
ATOM     27  H   UNL     1      28.549 -16.361   0.830  0.00  0.00    +0.000 HD
ENDBRANCH   1   7
ENDBRANCH  19   1
TORSDOF 4
ENDMDL
MODEL 5
REMARK VINA RESULT:      -7.3      5.572      8.225
REMARK  Name = 1181036
REMARK  5 active torsions:
REMARK  status: ('A' for Active; 'I' for Inactive)
REMARK    1  A    between atoms: S_1  and  N_7
REMARK    2  A    between atoms: S_1  and  C_19
REMARK    3  A    between atoms: N_6  and  C_16
REMARK    4  A    between atoms: C_9  and  C_15
REMARK    5  A    between atoms: C_24  and  C_25
REMARK                            x       y       z     vdW  Elec       q    Type
REMARK                         _______ _______ _______ _____ _____    ______ ____
ROOT
ATOM     16  C   UNL     1      32.236  -0.411   9.349  0.00  0.00    +0.000 A 
ATOM     17  C   UNL     1      32.894  -1.630   9.338  0.00  0.00    +0.000 A 
ATOM     18  C   UNL     1      32.885   0.764   9.003  0.00  0.00    +0.000 A 
ATOM     19  C   UNL     1      34.906  -0.502   8.617  0.00  0.00    +0.000 A 
ATOM     20  C   UNL     1      34.239  -1.675   8.969  0.00  0.00    +0.000 A 
ATOM     21  C   UNL     1      34.229   0.718   8.634  0.00  0.00    +0.000 A 
ENDROOT
BRANCH  16   6
ATOM      2  O   UNL     1      29.842   0.679   7.884  0.00  0.00    +0.000 OA
ATOM      6  N   UNL     1      30.872  -0.363   9.724  0.00  0.00    +0.000 N 
ATOM     15  C   UNL     1      29.812   0.159   8.994  0.00  0.00    +0.000 C 
ATOM     26  H   UNL     1      30.685  -0.715  10.659  0.00  0.00    +0.000 HD
BRANCH  15   9
ATOM      9  C   UNL     1      28.518   0.017   9.742  0.00  0.00    +0.000 C 
ATOM     10  C   UNL     1      27.331  -0.045   8.779  0.00  0.00    +0.000 C 
ATOM     11  C   UNL     1      28.583  -1.189  10.681  0.00  0.00    +0.000 C 
ATOM     12  C   UNL     1      27.185  -1.396   8.080  0.00  0.00    +0.000 C 
ATOM     13  C   UNL     1      28.439  -2.524   9.952  0.00  0.00    +0.000 C 
ATOM     14  C   UNL     1      27.194  -2.553   9.073  0.00  0.00    +0.000 C 
ENDBRANCH  15   9
ENDBRANCH  16   6
BRANCH  19   1
ATOM      1  S   UNL     1      36.590  -0.559   8.157  0.00  0.00    +0.000 S 
ATOM      3  O   UNL     1      37.312  -1.273   9.203  0.00  0.00    +0.000 OA
ATOM      4  O   UNL     1      37.021   0.787   7.798  0.00  0.00    +0.000 OA
BRANCH   1   7
ATOM      5  O   UNL     1      36.802   0.572   3.951  0.00  0.00    +0.000 OA
ATOM      7  N   UNL     1      36.567  -1.552   6.748  0.00  0.00    +0.000 N 
ATOM      8  N   UNL     1      36.984   0.330   5.308  0.00  0.00    +0.000 NA
ATOM     22  C   UNL     1      36.553  -0.904   5.465  0.00  0.00    +0.000 A 
ATOM     23  C   UNL     1      36.093  -1.512   4.308  0.00  0.00    +0.000 A 
ATOM     24  C   UNL     1      36.271  -0.533   3.366  0.00  0.00    +0.000 A 
ATOM     25  C   UNL     1      36.013  -0.452   1.924  0.00  0.00    +0.000 C 
ATOM     27  H   UNL     1      36.160  -2.494   6.802  0.00  0.00    +0.000 HD
ENDBRANCH   1   7
ENDBRANCH  19   1
TORSDOF 4
ENDMDL
MODEL 6
REMARK VINA RESULT:      -7.1      5.349      7.995
REMARK  Name = 1181036
REMARK  5 active torsions:
REMARK  status: ('A' for Active; 'I' for Inactive)
REMARK    1  A    between atoms: S_1  and  N_7
REMARK    2  A    between atoms: S_1  and  C_19
REMARK    3  A    between atoms: N_6  and  C_16
REMARK    4  A    between atoms: C_9  and  C_15
REMARK    5  A    between atoms: C_24  and  C_25
REMARK                            x       y       z     vdW  Elec       q    Type
REMARK                         _______ _______ _______ _____ _____    ______ ____
ROOT
ATOM     16  C   UNL     1      32.076  -2.398   9.664  0.00  0.00    +0.000 A 
ATOM     17  C   UNL     1      33.181  -1.562   9.665  0.00  0.00    +0.000 A 
ATOM     18  C   UNL     1      32.181  -3.733   9.309  0.00  0.00    +0.000 A 
ATOM     19  C   UNL     1      34.548  -3.418   8.942  0.00  0.00    +0.000 A 
ATOM     20  C   UNL     1      34.426  -2.077   9.302  0.00  0.00    +0.000 A 
ATOM     21  C   UNL     1      33.426  -4.247   8.946  0.00  0.00    +0.000 A 
ENDROOT
BRANCH  16   6
ATOM      2  O   UNL     1      30.776   0.236   8.999  0.00  0.00    +0.000 OA
ATOM      6  N   UNL     1      30.813  -1.877  10.032  0.00  0.00    +0.000 N 
ATOM     15  C   UNL     1      30.273  -0.644   9.688  0.00  0.00    +0.000 C 
ATOM     26  H   UNL     1      30.282  -2.476  10.660  0.00  0.00    +0.000 HD
BRANCH  15   9
ATOM      9  C   UNL     1      28.904  -0.469  10.280  0.00  0.00    +0.000 C 
ATOM     10  C   UNL     1      27.993   0.314   9.334  0.00  0.00    +0.000 C 
ATOM     11  C   UNL     1      28.322  -1.828  10.672  0.00  0.00    +0.000 C 
ATOM     12  C   UNL     1      27.481  -0.516   8.156  0.00  0.00    +0.000 C 
ATOM     13  C   UNL     1      27.825  -2.636   9.474  0.00  0.00    +0.000 C 
ATOM     14  C   UNL     1      26.858  -1.829   8.615  0.00  0.00    +0.000 C 
ENDBRANCH  15   9
ENDBRANCH  16   6
BRANCH  19   1
ATOM      1  S   UNL     1      36.106  -4.062   8.485  0.00  0.00    +0.000 S 
ATOM      3  O   UNL     1      36.149  -5.458   8.902  0.00  0.00    +0.000 OA
ATOM      4  O   UNL     1      37.143  -3.154   8.962  0.00  0.00    +0.000 OA
BRANCH   1   7
ATOM      5  O   UNL     1      37.148  -0.832   5.748  0.00  0.00    +0.000 OA
ATOM      7  N   UNL     1      36.048  -4.017   6.764  0.00  0.00    +0.000 N 
ATOM      8  N   UNL     1      37.082  -1.845   6.697  0.00  0.00    +0.000 NA
ATOM     22  C   UNL     1      36.359  -2.775   6.108  0.00  0.00    +0.000 A 
ATOM     23  C   UNL     1      35.934  -2.461   4.828  0.00  0.00    +0.000 A 
ATOM     24  C   UNL     1      36.461  -1.210   4.639  0.00  0.00    +0.000 A 
ATOM     25  C   UNL     1      36.428  -0.252   3.528  0.00  0.00    +0.000 C 
ATOM     27  H   UNL     1      35.431  -4.669   6.263  0.00  0.00    +0.000 HD
ENDBRANCH   1   7
ENDBRANCH  19   1
TORSDOF 4
ENDMDL
MODEL 7
REMARK VINA RESULT:      -7.1     14.474     16.452
REMARK  Name = 1181036
REMARK  5 active torsions:
REMARK  status: ('A' for Active; 'I' for Inactive)
REMARK    1  A    between atoms: S_1  and  N_7
REMARK    2  A    between atoms: S_1  and  C_19
REMARK    3  A    between atoms: N_6  and  C_16
REMARK    4  A    between atoms: C_9  and  C_15
REMARK    5  A    between atoms: C_24  and  C_25
REMARK                            x       y       z     vdW  Elec       q    Type
REMARK                         _______ _______ _______ _____ _____    ______ ____
ROOT
ATOM     16  C   UNL     1      19.310  -9.235  21.361  0.00  0.00    +0.000 A 
ATOM     17  C   UNL     1      20.076  -9.634  22.444  0.00  0.00    +0.000 A 
ATOM     18  C   UNL     1      19.757  -9.402  20.059  0.00  0.00    +0.000 A 
ATOM     19  C   UNL     1      21.787 -10.391  20.916  0.00  0.00    +0.000 A 
ATOM     20  C   UNL     1      21.324 -10.217  22.219  0.00  0.00    +0.000 A 
ATOM     21  C   UNL     1      21.004  -9.984  19.836  0.00  0.00    +0.000 A 
ENDROOT
BRANCH  16   6
ATOM      2  O   UNL     1      16.587 -10.490  21.640  0.00  0.00    +0.000 OA
ATOM      6  N   UNL     1      18.044  -8.644  21.587  0.00  0.00    +0.000 N 
ATOM     15  C   UNL     1      16.819  -9.288  21.705  0.00  0.00    +0.000 C 
ATOM     26  H   UNL     1      18.058  -7.628  21.614  0.00  0.00    +0.000 HD
BRANCH  15   9
ATOM      9  C   UNL     1      15.711  -8.302  21.942  0.00  0.00    +0.000 C 
ATOM     10  C   UNL     1      14.346  -8.992  21.906  0.00  0.00    +0.000 C 
ATOM     11  C   UNL     1      15.955  -7.541  23.246  0.00  0.00    +0.000 C 
ATOM     12  C   UNL     1      14.034  -9.791  23.171  0.00  0.00    +0.000 C 
ATOM     13  C   UNL     1      15.640  -8.368  24.492  0.00  0.00    +0.000 C 
ATOM     14  C   UNL     1      14.236  -8.960  24.433  0.00  0.00    +0.000 C 
ENDBRANCH  15   9
ENDBRANCH  16   6
BRANCH  19   1
ATOM      1  S   UNL     1      23.350 -11.119  20.635  0.00  0.00    +0.000 S 
ATOM      3  O   UNL     1      24.016 -10.351  19.589  0.00  0.00    +0.000 OA
ATOM      4  O   UNL     1      23.170 -12.554  20.448  0.00  0.00    +0.000 OA
BRANCH   1   7
ATOM      5  O   UNL     1      27.326 -12.388  21.897  0.00  0.00    +0.000 OA
ATOM      7  N   UNL     1      24.177 -10.831  22.120  0.00  0.00    +0.000 N 
ATOM      8  N   UNL     1      26.195 -11.849  21.294  0.00  0.00    +0.000 NA
ATOM     22  C   UNL     1      25.458 -11.456  22.312  0.00  0.00    +0.000 A 
ATOM     23  C   UNL     1      26.013 -11.690  23.559  0.00  0.00    +0.000 A 
ATOM     24  C   UNL     1      27.206 -12.287  23.247  0.00  0.00    +0.000 A 
ATOM     25  C   UNL     1      28.321 -12.809  24.045  0.00  0.00    +0.000 C 
ATOM     27  H   UNL     1      23.635 -10.605  22.963  0.00  0.00    +0.000 HD
ENDBRANCH   1   7
ENDBRANCH  19   1
TORSDOF 4
ENDMDL
MODEL 8
REMARK VINA RESULT:      -7.0     16.857     18.881
REMARK  Name = 1181036
REMARK  5 active torsions:
REMARK  status: ('A' for Active; 'I' for Inactive)
REMARK    1  A    between atoms: S_1  and  N_7
REMARK    2  A    between atoms: S_1  and  C_19
REMARK    3  A    between atoms: N_6  and  C_16
REMARK    4  A    between atoms: C_9  and  C_15
REMARK    5  A    between atoms: C_24  and  C_25
REMARK                            x       y       z     vdW  Elec       q    Type
REMARK                         _______ _______ _______ _____ _____    ______ ____
ROOT
ATOM     16  C   UNL     1      19.423 -13.255  23.155  0.00  0.00    +0.000 A 
ATOM     17  C   UNL     1      19.718 -12.574  21.986  0.00  0.00    +0.000 A 
ATOM     18  C   UNL     1      19.374 -12.604  24.378  0.00  0.00    +0.000 A 
ATOM     19  C   UNL     1      19.925 -10.533  23.262  0.00  0.00    +0.000 A 
ATOM     20  C   UNL     1      19.970 -11.203  22.040  0.00  0.00    +0.000 A 
ATOM     21  C   UNL     1      19.627 -11.233  24.432  0.00  0.00    +0.000 A 
ENDROOT
BRANCH  16   6
ATOM      2  O   UNL     1      17.255 -14.792  21.740  0.00  0.00    +0.000 OA
ATOM      6  N   UNL     1      19.167 -14.646  23.101  0.00  0.00    +0.000 N 
ATOM     15  C   UNL     1      18.140 -15.291  22.425  0.00  0.00    +0.000 C 
ATOM     26  H   UNL     1      19.794 -15.207  23.672  0.00  0.00    +0.000 HD
BRANCH  15   9
ATOM      9  C   UNL     1      18.216 -16.779  22.618  0.00  0.00    +0.000 C 
ATOM     10  C   UNL     1      17.280 -17.506  21.652  0.00  0.00    +0.000 C 
ATOM     11  C   UNL     1      19.667 -17.251  22.504  0.00  0.00    +0.000 C 
ATOM     12  C   UNL     1      17.811 -17.569  20.220  0.00  0.00    +0.000 C 
ATOM     13  C   UNL     1      20.170 -17.297  21.061  0.00  0.00    +0.000 C 
ATOM     14  C   UNL     1      19.237 -18.105  20.167  0.00  0.00    +0.000 C 
ENDBRANCH  15   9
ENDBRANCH  16   6
BRANCH  19   1
ATOM      1  S   UNL     1      20.243  -8.817  23.331  0.00  0.00    +0.000 S 
ATOM      3  O   UNL     1      21.553  -8.584  22.735  0.00  0.00    +0.000 OA
ATOM      4  O   UNL     1      19.995  -8.351  24.690  0.00  0.00    +0.000 OA
BRANCH   1   7
ATOM      5  O   UNL     1      15.894  -8.938  23.628  0.00  0.00    +0.000 OA
ATOM      7  N   UNL     1      19.049  -8.166  22.272  0.00  0.00    +0.000 N 
ATOM      8  N   UNL     1      17.265  -8.761  23.773  0.00  0.00    +0.000 NA
ATOM     22  C   UNL     1      17.667  -8.437  22.562  0.00  0.00    +0.000 A 
ATOM     23  C   UNL     1      16.663  -8.382  21.609  0.00  0.00    +0.000 A 
ATOM     24  C   UNL     1      15.547  -8.708  22.335  0.00  0.00    +0.000 A 
ATOM     25  C   UNL     1      14.125  -8.850  22.002  0.00  0.00    +0.000 C 
ATOM     27  H   UNL     1      19.294  -7.976  21.292  0.00  0.00    +0.000 HD
ENDBRANCH   1   7
ENDBRANCH  19   1
TORSDOF 4
ENDMDL
MODEL 9
REMARK VINA RESULT:      -7.0      5.982      9.888
REMARK  Name = 1181036
REMARK  5 active torsions:
REMARK  status: ('A' for Active; 'I' for Inactive)
REMARK    1  A    between atoms: S_1  and  N_7
REMARK    2  A    between atoms: S_1  and  C_19
REMARK    3  A    between atoms: N_6  and  C_16
REMARK    4  A    between atoms: C_9  and  C_15
REMARK    5  A    between atoms: C_24  and  C_25
REMARK                            x       y       z     vdW  Elec       q    Type
REMARK                         _______ _______ _______ _____ _____    ______ ____
ROOT
ATOM     16  C   UNL     1      33.339  -1.307  13.747  0.00  0.00    +0.000 A 
ATOM     17  C   UNL     1      33.221   0.027  14.102  0.00  0.00    +0.000 A 
ATOM     18  C   UNL     1      34.172  -2.169  14.442  0.00  0.00    +0.000 A 
ATOM     19  C   UNL     1      34.799  -0.343  15.894  0.00  0.00    +0.000 A 
ATOM     20  C   UNL     1      33.957   0.512  15.184  0.00  0.00    +0.000 A 
ATOM     21  C   UNL     1      34.907  -1.683  15.523  0.00  0.00    +0.000 A 
ENDROOT
BRANCH  16   6
ATOM      2  O   UNL     1      30.363  -1.472  13.319  0.00  0.00    +0.000 OA
ATOM      6  N   UNL     1      32.594  -1.800  12.649  0.00  0.00    +0.000 N 
ATOM     15  C   UNL     1      31.212  -1.847  12.518  0.00  0.00    +0.000 C 
ATOM     26  H   UNL     1      33.161  -2.203  11.908  0.00  0.00    +0.000 HD
BRANCH  15   9
ATOM      9  C   UNL     1      30.813  -2.444  11.199  0.00  0.00    +0.000 C 
ATOM     10  C   UNL     1      29.355  -2.122  10.869  0.00  0.00    +0.000 C 
ATOM     11  C   UNL     1      31.781  -1.994  10.104  0.00  0.00    +0.000 C 
ATOM     12  C   UNL     1      29.142  -0.687  10.391  0.00  0.00    +0.000 C 
ATOM     13  C   UNL     1      31.547  -0.553   9.652  0.00  0.00    +0.000 C 
ATOM     14  C   UNL     1      30.093  -0.318   9.258  0.00  0.00    +0.000 C 
ENDBRANCH  15   9
ENDBRANCH  16   6
BRANCH  19   1
ATOM      1  S   UNL     1      35.721   0.265  17.247  0.00  0.00    +0.000 S 
ATOM      3  O   UNL     1      35.369   1.668  17.430  0.00  0.00    +0.000 OA
ATOM      4  O   UNL     1      37.122  -0.088  17.052  0.00  0.00    +0.000 OA
BRANCH   1   7
ATOM      5  O   UNL     1      37.056   0.110  21.395  0.00  0.00    +0.000 OA
ATOM      7  N   UNL     1      35.081  -0.626  18.576  0.00  0.00    +0.000 N 
ATOM      8  N   UNL     1      36.591   0.429  20.124  0.00  0.00    +0.000 NA
ATOM     22  C   UNL     1      35.783  -0.568  19.830  0.00  0.00    +0.000 A 
ATOM     23  C   UNL     1      35.670  -1.537  20.813  0.00  0.00    +0.000 A 
ATOM     24  C   UNL     1      36.500  -1.063  21.795  0.00  0.00    +0.000 A 
ATOM     25  C   UNL     1      36.883  -1.551  23.124  0.00  0.00    +0.000 C 
ATOM     27  H   UNL     1      34.514  -1.464  18.395  0.00  0.00    +0.000 HD
ENDBRANCH   1   7
ENDBRANCH  19   1
TORSDOF 4
ENDMDL
