MODEL 1
REMARK VINA RESULT:      -8.2      0.000      0.000
REMARK  Name = 114821
REMARK  5 active torsions:
REMARK  status: ('A' for Active; 'I' for Inactive)
REMARK    1  A    between atoms: S_1  and  N_6
REMARK    2  A    between atoms: S_1  and  C_9
REMARK    3  A    between atoms: O_5  and  N_8
REMARK    4  A    between atoms: N_8  and  C_13
REMARK    5  A    between atoms: C_17  and  C_18
REMARK                            x       y       z     vdW  Elec       q    Type
REMARK                         _______ _______ _______ _____ _____    ______ ____
ROOT
ATOM      1  S   UNL     1      25.505  -4.130   7.831  0.00  0.00    +0.000 S 
ATOM      2  O   UNL     1      26.060  -5.289   8.522  0.00  0.00    +0.000 OA
ATOM      3  O   UNL     1      25.415  -4.157   6.377  0.00  0.00    +0.000 OA
ENDROOT
BRANCH   1   6
ATOM      4  O   UNL     1      21.492  -4.625   6.120  0.00  0.00    +0.000 OA
ATOM      6  N   UNL     1      23.952  -3.802   8.499  0.00  0.00    +0.000 N 
ATOM      7  N   UNL     1      22.723  -4.859   6.720  0.00  0.00    +0.000 NA
ATOM     12  C   UNL     1      22.806  -3.918   7.636  0.00  0.00    +0.000 A 
ATOM     16  C   UNL     1      21.717  -3.065   7.697  0.00  0.00    +0.000 A 
ATOM     17  C   UNL     1      20.902  -3.554   6.711  0.00  0.00    +0.000 A 
ATOM     18  C   UNL     1      19.584  -3.164   6.195  0.00  0.00    +0.000 C 
ATOM     19  H   UNL     1      23.900  -3.074   9.223  0.00  0.00    +0.000 HD
ENDBRANCH   1   6
BRANCH   1   9
ATOM      9  C   UNL     1      26.435  -2.732   8.308  0.00  0.00    +0.000 A 
ATOM     10  C   UNL     1      27.191  -2.762   9.481  0.00  0.00    +0.000 A 
ATOM     11  C   UNL     1      26.424  -1.583   7.516  0.00  0.00    +0.000 A 
ATOM     13  C   UNL     1      27.922  -0.497   9.071  0.00  0.00    +0.000 A 
ATOM     14  C   UNL     1      27.933  -1.645   9.862  0.00  0.00    +0.000 A 
ATOM     15  C   UNL     1      27.167  -0.466   7.898  0.00  0.00    +0.000 A 
BRANCH  13   8
ATOM      8  N   UNL     1      28.674   0.633   9.455  0.00  0.00    +0.000 N 
ATOM     20  H   UNL     1      29.634   0.734   9.153  0.00  0.00    +0.000 HD
BRANCH   8   5
ATOM      5  O   UNL     1      28.145   1.647  10.212  0.00  0.00    +0.000 OA
ATOM     21  H   UNL     1      27.191   1.484  10.127  0.00  0.00    +0.000 HD
ENDBRANCH   8   5
ENDBRANCH  13   8
ENDBRANCH   1   9
TORSDOF 4
ENDMDL
MODEL 2
REMARK VINA RESULT:      -7.8      3.245      8.027
REMARK  Name = 114821
REMARK  5 active torsions:
REMARK  status: ('A' for Active; 'I' for Inactive)
REMARK    1  A    between atoms: S_1  and  N_6
REMARK    2  A    between atoms: S_1  and  C_9
REMARK    3  A    between atoms: O_5  and  N_8
REMARK    4  A    between atoms: N_8  and  C_13
REMARK    5  A    between atoms: C_17  and  C_18
REMARK                            x       y       z     vdW  Elec       q    Type
REMARK                         _______ _______ _______ _____ _____    ______ ____
ROOT
ATOM      1  S   UNL     1      29.091  -0.308   9.322  0.00  0.00    +0.000 S 
ATOM      2  O   UNL     1      28.502   0.234  10.541  0.00  0.00    +0.000 OA
ATOM      3  O   UNL     1      29.538   0.617   8.287  0.00  0.00    +0.000 OA
ENDROOT
BRANCH   1   6
ATOM      4  O   UNL     1      30.484  -1.599  13.281  0.00  0.00    +0.000 OA
ATOM      6  N   UNL     1      30.393  -1.343   9.772  0.00  0.00    +0.000 N 
ATOM      7  N   UNL     1      29.774  -1.473  12.094  0.00  0.00    +0.000 NA
ATOM     12  C   UNL     1      30.711  -1.460  11.170  0.00  0.00    +0.000 A 
ATOM     16  C   UNL     1      32.005  -1.568  11.651  0.00  0.00    +0.000 A 
ATOM     17  C   UNL     1      31.813  -1.654  13.004  0.00  0.00    +0.000 A 
ATOM     18  C   UNL     1      32.718  -1.787  14.153  0.00  0.00    +0.000 C 
ATOM     19  H   UNL     1      31.187  -1.402   9.121  0.00  0.00    +0.000 HD
ENDBRANCH   1   6
BRANCH   1   9
ATOM      9  C   UNL     1      27.938  -1.416   8.622  0.00  0.00    +0.000 A 
ATOM     10  C   UNL     1      27.364  -1.136   7.381  0.00  0.00    +0.000 A 
ATOM     11  C   UNL     1      27.591  -2.584   9.303  0.00  0.00    +0.000 A 
ATOM     13  C   UNL     1      26.095  -3.187   7.503  0.00  0.00    +0.000 A 
ATOM     14  C   UNL     1      26.443  -2.021   6.823  0.00  0.00    +0.000 A 
ATOM     15  C   UNL     1      26.669  -3.468   8.743  0.00  0.00    +0.000 A 
BRANCH  13   8
ATOM      8  N   UNL     1      25.164  -4.083   6.938  0.00  0.00    +0.000 N 
ATOM     20  H   UNL     1      24.335  -3.734   6.474  0.00  0.00    +0.000 HD
BRANCH   8   5
ATOM      5  O   UNL     1      25.345  -5.443   6.957  0.00  0.00    +0.000 OA
ATOM     21  H   UNL     1      24.598  -5.752   6.418  0.00  0.00    +0.000 HD
ENDBRANCH   8   5
ENDBRANCH  13   8
ENDBRANCH   1   9
TORSDOF 4
ENDMDL
MODEL 3
REMARK VINA RESULT:      -7.7      2.002      2.609
REMARK  Name = 114821
REMARK  5 active torsions:
REMARK  status: ('A' for Active; 'I' for Inactive)
REMARK    1  A    between atoms: S_1  and  N_6
REMARK    2  A    between atoms: S_1  and  C_9
REMARK    3  A    between atoms: O_5  and  N_8
REMARK    4  A    between atoms: N_8  and  C_13
REMARK    5  A    between atoms: C_17  and  C_18
REMARK                            x       y       z     vdW  Elec       q    Type
REMARK                         _______ _______ _______ _____ _____    ______ ____
ROOT
ATOM      1  S   UNL     1      25.055  -4.730   7.743  0.00  0.00    +0.000 S 
ATOM      2  O   UNL     1      26.028  -5.813   7.649  0.00  0.00    +0.000 OA
ATOM      3  O   UNL     1      24.151  -4.500   6.623  0.00  0.00    +0.000 OA
ENDROOT
BRANCH   1   6
ATOM      4  O   UNL     1      21.658  -2.468   9.364  0.00  0.00    +0.000 OA
ATOM      6  N   UNL     1      24.140  -4.957   9.185  0.00  0.00    +0.000 N 
ATOM      7  N   UNL     1      22.447  -3.341   8.625  0.00  0.00    +0.000 NA
ATOM     12  C   UNL     1      23.172  -3.953   9.537  0.00  0.00    +0.000 A 
ATOM     16  C   UNL     1      22.928  -3.553  10.841  0.00  0.00    +0.000 A 
ATOM     17  C   UNL     1      21.954  -2.604  10.682  0.00  0.00    +0.000 A 
ATOM     18  C   UNL     1      21.206  -1.749  11.613  0.00  0.00    +0.000 C 
ATOM     19  H   UNL     1      24.616  -5.421   9.970  0.00  0.00    +0.000 HD
ENDBRANCH   1   6
BRANCH   1   9
ATOM      9  C   UNL     1      25.930  -3.255   8.067  0.00  0.00    +0.000 A 
ATOM     10  C   UNL     1      26.021  -2.267   7.086  0.00  0.00    +0.000 A 
ATOM     11  C   UNL     1      26.540  -3.064   9.308  0.00  0.00    +0.000 A 
ATOM     13  C   UNL     1      27.331  -0.898   8.585  0.00  0.00    +0.000 A 
ATOM     14  C   UNL     1      26.721  -1.089   7.345  0.00  0.00    +0.000 A 
ATOM     15  C   UNL     1      27.240  -1.886   9.566  0.00  0.00    +0.000 A 
BRANCH  13   8
ATOM      8  N   UNL     1      28.037   0.293   8.848  0.00  0.00    +0.000 N 
ATOM     20  H   UNL     1      28.235   0.946   8.100  0.00  0.00    +0.000 HD
BRANCH   8   5
ATOM      5  O   UNL     1      28.456   0.640  10.108  0.00  0.00    +0.000 OA
ATOM     21  H   UNL     1      28.037  -0.047  10.653  0.00  0.00    +0.000 HD
ENDBRANCH   8   5
ENDBRANCH  13   8
ENDBRANCH   1   9
TORSDOF 4
ENDMDL
MODEL 4
REMARK VINA RESULT:      -7.5      3.394      8.073
REMARK  Name = 114821
REMARK  5 active torsions:
REMARK  status: ('A' for Active; 'I' for Inactive)
REMARK    1  A    between atoms: S_1  and  N_6
REMARK    2  A    between atoms: S_1  and  C_9
REMARK    3  A    between atoms: O_5  and  N_8
REMARK    4  A    between atoms: N_8  and  C_13
REMARK    5  A    between atoms: C_17  and  C_18
REMARK                            x       y       z     vdW  Elec       q    Type
REMARK                         _______ _______ _______ _____ _____    ______ ____
ROOT
ATOM      1  S   UNL     1      28.678  -0.130  10.039  0.00  0.00    +0.000 S 
ATOM      2  O   UNL     1      28.914  -0.801  11.312  0.00  0.00    +0.000 OA
ATOM      3  O   UNL     1      28.023   1.173  10.044  0.00  0.00    +0.000 OA
ENDROOT
BRANCH   1   6
ATOM      4  O   UNL     1      32.312  -2.574  10.348  0.00  0.00    +0.000 OA
ATOM      6  N   UNL     1      30.182  -0.015   9.207  0.00  0.00    +0.000 N 
ATOM      7  N   UNL     1      31.044  -2.107  10.028  0.00  0.00    +0.000 NA
ATOM     12  C   UNL     1      31.258  -0.870   9.634  0.00  0.00    +0.000 A 
ATOM     16  C   UNL     1      32.583  -0.469   9.666  0.00  0.00    +0.000 A 
ATOM     17  C   UNL     1      33.221  -1.589  10.128  0.00  0.00    +0.000 A 
ATOM     18  C   UNL     1      34.623  -1.914  10.417  0.00  0.00    +0.000 C 
ATOM     19  H   UNL     1      30.453   0.914   8.861  0.00  0.00    +0.000 HD
ENDBRANCH   1   6
BRANCH   1   9
ATOM      9  C   UNL     1      27.757  -1.215   9.029  0.00  0.00    +0.000 A 
ATOM     10  C   UNL     1      27.276  -0.781   7.793  0.00  0.00    +0.000 A 
ATOM     11  C   UNL     1      27.501  -2.518   9.458  0.00  0.00    +0.000 A 
ATOM     13  C   UNL     1      26.284  -2.950   7.415  0.00  0.00    +0.000 A 
ATOM     14  C   UNL     1      26.540  -1.648   6.987  0.00  0.00    +0.000 A 
ATOM     15  C   UNL     1      26.764  -3.385   8.650  0.00  0.00    +0.000 A 
BRANCH  13   8
ATOM      8  N   UNL     1      25.540  -3.828   6.599  0.00  0.00    +0.000 N 
ATOM     20  H   UNL     1      25.217  -3.528   5.688  0.00  0.00    +0.000 HD
BRANCH   8   5
ATOM      5  O   UNL     1      25.251  -5.116   6.974  0.00  0.00    +0.000 OA
ATOM     21  H   UNL     1      26.003  -5.329   7.550  0.00  0.00    +0.000 HD
ENDBRANCH   8   5
ENDBRANCH  13   8
ENDBRANCH   1   9
TORSDOF 4
ENDMDL
MODEL 5
REMARK VINA RESULT:      -7.4      2.583      3.217
REMARK  Name = 114821
REMARK  5 active torsions:
REMARK  status: ('A' for Active; 'I' for Inactive)
REMARK    1  A    between atoms: S_1  and  N_6
REMARK    2  A    between atoms: S_1  and  C_9
REMARK    3  A    between atoms: O_5  and  N_8
REMARK    4  A    between atoms: N_8  and  C_13
REMARK    5  A    between atoms: C_17  and  C_18
REMARK                            x       y       z     vdW  Elec       q    Type
REMARK                         _______ _______ _______ _____ _____    ______ ____
ROOT
ATOM      1  S   UNL     1      26.417  -1.818   7.471  0.00  0.00    +0.000 S 
ATOM      2  O   UNL     1      26.956  -2.671   6.417  0.00  0.00    +0.000 OA
ATOM      3  O   UNL     1      25.999  -0.463   7.131  0.00  0.00    +0.000 OA
ENDROOT
BRANCH   1   6
ATOM      4  O   UNL     1      25.115  -5.997   7.117  0.00  0.00    +0.000 OA
ATOM      6  N   UNL     1      25.110  -2.654   8.219  0.00  0.00    +0.000 N 
ATOM      7  N   UNL     1      25.793  -4.838   7.473  0.00  0.00    +0.000 NA
ATOM     12  C   UNL     1      24.830  -3.998   7.787  0.00  0.00    +0.000 A 
ATOM     16  C   UNL     1      23.549  -4.509   7.667  0.00  0.00    +0.000 A 
ATOM     17  C   UNL     1      23.779  -5.788   7.236  0.00  0.00    +0.000 A 
ATOM     18  C   UNL     1      22.905  -6.919   6.896  0.00  0.00    +0.000 C 
ATOM     19  H   UNL     1      24.296  -2.091   8.499  0.00  0.00    +0.000 HD
ENDBRANCH   1   6
BRANCH   1   9
ATOM      9  C   UNL     1      27.605  -1.734   8.746  0.00  0.00    +0.000 A 
ATOM     10  C   UNL     1      27.892  -0.512   9.354  0.00  0.00    +0.000 A 
ATOM     11  C   UNL     1      28.269  -2.891   9.158  0.00  0.00    +0.000 A 
ATOM     13  C   UNL     1      29.506  -1.600  10.785  0.00  0.00    +0.000 A 
ATOM     14  C   UNL     1      28.842  -0.445  10.373  0.00  0.00    +0.000 A 
ATOM     15  C   UNL     1      29.219  -2.822  10.177  0.00  0.00    +0.000 A 
BRANCH  13   8
ATOM      8  N   UNL     1      30.466  -1.533  11.816  0.00  0.00    +0.000 N 
ATOM     20  H   UNL     1      31.453  -1.492  11.594  0.00  0.00    +0.000 HD
BRANCH   8   5
ATOM      5  O   UNL     1      30.120  -1.487  13.143  0.00  0.00    +0.000 OA
ATOM     21  H   UNL     1      30.533  -2.297  13.485  0.00  0.00    +0.000 HD
ENDBRANCH   8   5
ENDBRANCH  13   8
ENDBRANCH   1   9
TORSDOF 4
ENDMDL
MODEL 6
REMARK VINA RESULT:      -7.3      2.265      2.817
REMARK  Name = 114821
REMARK  5 active torsions:
REMARK  status: ('A' for Active; 'I' for Inactive)
REMARK    1  A    between atoms: S_1  and  N_6
REMARK    2  A    between atoms: S_1  and  C_9
REMARK    3  A    between atoms: O_5  and  N_8
REMARK    4  A    between atoms: N_8  and  C_13
REMARK    5  A    between atoms: C_17  and  C_18
REMARK                            x       y       z     vdW  Elec       q    Type
REMARK                         _______ _______ _______ _____ _____    ______ ____
ROOT
ATOM      1  S   UNL     1      23.036  -5.480   7.679  0.00  0.00    +0.000 S 
ATOM      2  O   UNL     1      22.180  -5.405   8.858  0.00  0.00    +0.000 OA
ATOM      3  O   UNL     1      23.601  -6.771   7.304  0.00  0.00    +0.000 OA
ENDROOT
BRANCH   1   6
ATOM      4  O   UNL     1      20.194  -2.139   7.485  0.00  0.00    +0.000 OA
ATOM      6  N   UNL     1      22.168  -4.821   6.345  0.00  0.00    +0.000 N 
ATOM      7  N   UNL     1      21.355  -2.898   7.544  0.00  0.00    +0.000 NA
ATOM     12  C   UNL     1      21.176  -3.813   6.615  0.00  0.00    +0.000 A 
ATOM     16  C   UNL     1      19.975  -3.724   5.932  0.00  0.00    +0.000 A 
ATOM     17  C   UNL     1      19.379  -2.641   6.521  0.00  0.00    +0.000 A 
ATOM     18  C   UNL     1      18.097  -1.953   6.322  0.00  0.00    +0.000 C 
ATOM     19  H   UNL     1      21.965  -5.456   5.562  0.00  0.00    +0.000 HD
ENDBRANCH   1   6
BRANCH   1   9
ATOM      9  C   UNL     1      24.339  -4.341   7.896  0.00  0.00    +0.000 A 
ATOM     10  C   UNL     1      24.502  -3.688   9.119  0.00  0.00    +0.000 A 
ATOM     11  C   UNL     1      25.221  -4.081   6.846  0.00  0.00    +0.000 A 
ATOM     13  C   UNL     1      26.424  -2.518   8.242  0.00  0.00    +0.000 A 
ATOM     14  C   UNL     1      25.543  -2.778   9.291  0.00  0.00    +0.000 A 
ATOM     15  C   UNL     1      26.263  -3.170   7.019  0.00  0.00    +0.000 A 
BRANCH  13   8
ATOM      8  N   UNL     1      27.478  -1.598   8.416  0.00  0.00    +0.000 N 
ATOM     20  H   UNL     1      28.108  -1.685   9.204  0.00  0.00    +0.000 HD
BRANCH   8   5
ATOM      5  O   UNL     1      27.722  -0.579   7.530  0.00  0.00    +0.000 OA
ATOM     21  H   UNL     1      27.871   0.173   8.126  0.00  0.00    +0.000 HD
ENDBRANCH   8   5
ENDBRANCH  13   8
ENDBRANCH   1   9
TORSDOF 4
ENDMDL
MODEL 7
REMARK VINA RESULT:      -7.2      2.278      6.215
REMARK  Name = 114821
REMARK  5 active torsions:
REMARK  status: ('A' for Active; 'I' for Inactive)
REMARK    1  A    between atoms: S_1  and  N_6
REMARK    2  A    between atoms: S_1  and  C_9
REMARK    3  A    between atoms: O_5  and  N_8
REMARK    4  A    between atoms: N_8  and  C_13
REMARK    5  A    between atoms: C_17  and  C_18
REMARK                            x       y       z     vdW  Elec       q    Type
REMARK                         _______ _______ _______ _____ _____    ______ ____
ROOT
ATOM      1  S   UNL     1      23.956  -5.303   7.468  0.00  0.00    +0.000 S 
ATOM      2  O   UNL     1      23.771  -6.508   6.668  0.00  0.00    +0.000 OA
ATOM      3  O   UNL     1      24.203  -5.442   8.898  0.00  0.00    +0.000 OA
ENDROOT
BRANCH   1   6
ATOM      4  O   UNL     1      26.838  -2.522   9.269  0.00  0.00    +0.000 OA
ATOM      6  N   UNL     1      25.217  -4.374   6.752  0.00  0.00    +0.000 N 
ATOM      7  N   UNL     1      26.182  -3.670   8.842  0.00  0.00    +0.000 NA
ATOM     12  C   UNL     1      25.908  -3.420   7.579  0.00  0.00    +0.000 A 
ATOM     16  C   UNL     1      26.334  -2.183   7.124  0.00  0.00    +0.000 A 
ATOM     17  C   UNL     1      26.923  -1.644   8.236  0.00  0.00    +0.000 A 
ATOM     18  C   UNL     1      27.592  -0.367   8.514  0.00  0.00    +0.000 C 
ATOM     19  H   UNL     1      25.101  -4.114   5.764  0.00  0.00    +0.000 HD
ENDBRANCH   1   6
BRANCH   1   9
ATOM      9  C   UNL     1      22.552  -4.292   7.239  0.00  0.00    +0.000 A 
ATOM     10  C   UNL     1      22.393  -3.134   8.001  0.00  0.00    +0.000 A 
ATOM     11  C   UNL     1      21.587  -4.642   6.294  0.00  0.00    +0.000 A 
ATOM     13  C   UNL     1      20.306  -2.676   6.874  0.00  0.00    +0.000 A 
ATOM     14  C   UNL     1      21.271  -2.326   7.818  0.00  0.00    +0.000 A 
ATOM     15  C   UNL     1      20.464  -3.834   6.112  0.00  0.00    +0.000 A 
BRANCH  13   8
ATOM      8  N   UNL     1      19.172  -1.860   6.687  0.00  0.00    +0.000 N 
ATOM     20  H   UNL     1      18.321  -2.247   6.300  0.00  0.00    +0.000 HD
BRANCH   8   5
ATOM      5  O   UNL     1      19.150  -0.535   7.044  0.00  0.00    +0.000 OA
ATOM     21  H   UNL     1      20.095  -0.349   7.177  0.00  0.00    +0.000 HD
ENDBRANCH   8   5
ENDBRANCH  13   8
ENDBRANCH   1   9
TORSDOF 4
ENDMDL
MODEL 8
REMARK VINA RESULT:      -6.8      3.314      6.234
REMARK  Name = 114821
REMARK  5 active torsions:
REMARK  status: ('A' for Active; 'I' for Inactive)
REMARK    1  A    between atoms: S_1  and  N_6
REMARK    2  A    between atoms: S_1  and  C_9
REMARK    3  A    between atoms: O_5  and  N_8
REMARK    4  A    between atoms: N_8  and  C_13
REMARK    5  A    between atoms: C_17  and  C_18
REMARK                            x       y       z     vdW  Elec       q    Type
REMARK                         _______ _______ _______ _____ _____    ______ ____
ROOT
ATOM      1  S   UNL     1      22.663  -6.130   7.002  0.00  0.00    +0.000 S 
ATOM      2  O   UNL     1      21.209  -6.024   6.940  0.00  0.00    +0.000 OA
ATOM      3  O   UNL     1      23.338  -7.048   6.093  0.00  0.00    +0.000 OA
ENDROOT
BRANCH   1   6
ATOM      4  O   UNL     1      26.581  -4.516   8.152  0.00  0.00    +0.000 OA
ATOM      6  N   UNL     1      23.323  -4.549   6.822  0.00  0.00    +0.000 N 
ATOM      7  N   UNL     1      25.552  -5.168   7.484  0.00  0.00    +0.000 NA
ATOM     12  C   UNL     1      24.590  -4.271   7.443  0.00  0.00    +0.000 A 
ATOM     16  C   UNL     1      24.898  -3.058   8.038  0.00  0.00    +0.000 A 
ATOM     17  C   UNL     1      26.179  -3.260   8.477  0.00  0.00    +0.000 A 
ATOM     18  C   UNL     1      27.151  -2.425   9.195  0.00  0.00    +0.000 C 
ATOM     19  H   UNL     1      22.655  -3.767   6.786  0.00  0.00    +0.000 HD
ENDBRANCH   1   6
BRANCH   1   9
ATOM      9  C   UNL     1      23.095  -6.547   8.641  0.00  0.00    +0.000 A 
ATOM     10  C   UNL     1      24.095  -7.489   8.882  0.00  0.00    +0.000 A 
ATOM     11  C   UNL     1      22.441  -5.936   9.712  0.00  0.00    +0.000 A 
ATOM     13  C   UNL     1      23.786  -7.212  11.262  0.00  0.00    +0.000 A 
ATOM     14  C   UNL     1      24.440  -7.822  10.191  0.00  0.00    +0.000 A 
ATOM     15  C   UNL     1      22.786  -6.269  11.022  0.00  0.00    +0.000 A 
BRANCH  13   8
ATOM      8  N   UNL     1      24.135  -7.547  12.586  0.00  0.00    +0.000 N 
ATOM     20  H   UNL     1      23.636  -7.138  13.366  0.00  0.00    +0.000 HD
BRANCH   8   5
ATOM      5  O   UNL     1      25.124  -8.452  12.881  0.00  0.00    +0.000 OA
ATOM     21  H   UNL     1      24.619  -9.173  13.292  0.00  0.00    +0.000 HD
ENDBRANCH   8   5
ENDBRANCH  13   8
ENDBRANCH   1   9
TORSDOF 4
ENDMDL
MODEL 9
REMARK VINA RESULT:      -6.4      5.743      8.353
REMARK  Name = 114821
REMARK  5 active torsions:
REMARK  status: ('A' for Active; 'I' for Inactive)
REMARK    1  A    between atoms: S_1  and  N_6
REMARK    2  A    between atoms: S_1  and  C_9
REMARK    3  A    between atoms: O_5  and  N_8
REMARK    4  A    between atoms: N_8  and  C_13
REMARK    5  A    between atoms: C_17  and  C_18
REMARK                            x       y       z     vdW  Elec       q    Type
REMARK                         _______ _______ _______ _____ _____    ______ ____
ROOT
ATOM      1  S   UNL     1      31.560  -1.885  12.575  0.00  0.00    +0.000 S 
ATOM      2  O   UNL     1      32.791  -1.107  12.654  0.00  0.00    +0.000 OA
ATOM      3  O   UNL     1      30.427  -1.493  13.405  0.00  0.00    +0.000 OA
ENDROOT
BRANCH   1   6
ATOM      4  O   UNL     1      27.578  -1.545  10.753  0.00  0.00    +0.000 OA
ATOM      6  N   UNL     1      31.071  -1.946  10.924  0.00  0.00    +0.000 N 
ATOM      7  N   UNL     1      28.803  -1.257  11.343  0.00  0.00    +0.000 NA
ATOM     12  C   UNL     1      29.661  -1.961  10.636  0.00  0.00    +0.000 A 
ATOM     16  C   UNL     1      29.101  -2.704   9.610  0.00  0.00    +0.000 A 
ATOM     17  C   UNL     1      27.769  -2.408   9.722  0.00  0.00    +0.000 A 
ATOM     18  C   UNL     1      26.570  -2.821   8.983  0.00  0.00    +0.000 C 
ATOM     19  H   UNL     1      31.670  -2.480  10.281  0.00  0.00    +0.000 HD
ENDBRANCH   1   6
BRANCH   1   9
ATOM      9  C   UNL     1      31.959  -3.548  12.923  0.00  0.00    +0.000 A 
ATOM     10  C   UNL     1      32.136  -3.962  14.243  0.00  0.00    +0.000 A 
ATOM     11  C   UNL     1      32.100  -4.465  11.880  0.00  0.00    +0.000 A 
ATOM     13  C   UNL     1      32.597  -6.207  13.479  0.00  0.00    +0.000 A 
ATOM     14  C   UNL     1      32.455  -5.291  14.521  0.00  0.00    +0.000 A 
ATOM     15  C   UNL     1      32.419  -5.794  12.159  0.00  0.00    +0.000 A 
BRANCH  13   8
ATOM      8  N   UNL     1      32.918  -7.551  13.760  0.00  0.00    +0.000 N 
ATOM     20  H   UNL     1      33.588  -7.776  14.485  0.00  0.00    +0.000 HD
BRANCH   8   5
ATOM      5  O   UNL     1      32.329  -8.602  13.104  0.00  0.00    +0.000 OA
ATOM     21  H   UNL     1      31.419  -8.283  12.992  0.00  0.00    +0.000 HD
ENDBRANCH   8   5
ENDBRANCH  13   8
ENDBRANCH   1   9
TORSDOF 4
ENDMDL
