MODEL 1
REMARK VINA RESULT:      -7.5      0.000      0.000
REMARK  Name = 6662
REMARK  7 active torsions:
REMARK  status: ('A' for Active; 'I' for Inactive)
REMARK    1  A    between atoms: S_1  and  N_6
REMARK    2  A    between atoms: S_1  and  C_10
REMARK    3  A    between atoms: N_6  and  C_9
REMARK    4  A    between atoms: N_8  and  C_19
REMARK    5  A    between atoms: C_11  and  C_16
REMARK    6  A    between atoms: C_12  and  C_20
REMARK    7  A    between atoms: C_13  and  C_21
REMARK                            x       y       z     vdW  Elec       q    Type
REMARK                         _______ _______ _______ _____ _____    ______ ____
ROOT
ATOM      1  S   UNL     1      22.495  -4.488   7.212  0.00  0.00    +0.000 S 
ATOM      3  O   UNL     1      21.505  -3.820   8.048  0.00  0.00    +0.000 OA
ATOM      4  O   UNL     1      22.408  -4.370   5.762  0.00  0.00    +0.000 OA
ENDROOT
BRANCH   1  10
ATOM     10  C   UNL     1      24.059  -3.914   7.734  0.00  0.00    +0.000 A 
ATOM     14  C   UNL     1      24.208  -3.351   9.002  0.00  0.00    +0.000 A 
ATOM     15  C   UNL     1      25.160  -4.016   6.883  0.00  0.00    +0.000 A 
ATOM     17  C   UNL     1      25.456  -2.891   9.419  0.00  0.00    +0.000 A 
ATOM     18  C   UNL     1      26.408  -3.556   7.300  0.00  0.00    +0.000 A 
ATOM     19  C   UNL     1      26.557  -2.994   8.568  0.00  0.00    +0.000 A 
BRANCH  19   8
ATOM      8  N   UNL     1      27.820  -2.530   8.990  0.00  0.00    +0.000 N 
ATOM     22  H   UNL     1      28.496  -2.208   8.309  0.00  0.00    +0.000 HD
ATOM     23  H   UNL     1      28.055  -2.526   9.974  0.00  0.00    +0.000 HD
ENDBRANCH  19   8
ENDBRANCH   1  10
BRANCH   1   6
ATOM      5  O   UNL     1      22.302  -7.018   5.436  0.00  0.00    +0.000 OA
ATOM      6  N   UNL     1      22.570  -6.170   7.606  0.00  0.00    +0.000 N 
ATOM     13  C   UNL     1      22.452  -7.236   6.637  0.00  0.00    +0.000 C 
ATOM     21  C   UNL     1      22.539  -8.653   7.146  0.00  0.00    +0.000 C 
BRANCH   6   9
ATOM      2  O   UNL     1      21.791  -6.498   9.943  0.00  0.00    +0.000 OA
ATOM      7  N   UNL     1      22.319  -6.907  11.162  0.00  0.00    +0.000 NA
ATOM      9  C   UNL     1      22.769  -6.543   9.027  0.00  0.00    +0.000 A 
ATOM     11  C   UNL     1      23.938  -6.962   9.561  0.00  0.00    +0.000 A 
ATOM     12  C   UNL     1      23.602  -7.179  10.909  0.00  0.00    +0.000 A 
ATOM     16  C   UNL     1      25.246  -7.150   8.910  0.00  0.00    +0.000 C 
ATOM     20  C   UNL     1      24.475  -7.647  11.998  0.00  0.00    +0.000 C 
ENDBRANCH   6   9
ENDBRANCH   1   6
TORSDOF 4
ENDMDL
MODEL 2
REMARK VINA RESULT:      -6.5      8.518     10.690
REMARK  Name = 6662
REMARK  7 active torsions:
REMARK  status: ('A' for Active; 'I' for Inactive)
REMARK    1  A    between atoms: S_1  and  N_6
REMARK    2  A    between atoms: S_1  and  C_10
REMARK    3  A    between atoms: N_6  and  C_9
REMARK    4  A    between atoms: N_8  and  C_19
REMARK    5  A    between atoms: C_11  and  C_16
REMARK    6  A    between atoms: C_12  and  C_20
REMARK    7  A    between atoms: C_13  and  C_21
REMARK                            x       y       z     vdW  Elec       q    Type
REMARK                         _______ _______ _______ _____ _____    ______ ____
ROOT
ATOM      1  S   UNL     1      32.590  -2.315  11.105  0.00  0.00    +0.000 S 
ATOM      3  O   UNL     1      33.161  -3.443  10.378  0.00  0.00    +0.000 OA
ATOM      4  O   UNL     1      33.137  -0.980  10.904  0.00  0.00    +0.000 OA
ENDROOT
BRANCH   1  10
ATOM     10  C   UNL     1      30.885  -2.292  10.730  0.00  0.00    +0.000 A 
ATOM     14  C   UNL     1      30.362  -3.197   9.806  0.00  0.00    +0.000 A 
ATOM     15  C   UNL     1      30.047  -1.367  11.351  0.00  0.00    +0.000 A 
ATOM     17  C   UNL     1      29.001  -3.178   9.505  0.00  0.00    +0.000 A 
ATOM     18  C   UNL     1      28.686  -1.347  11.050  0.00  0.00    +0.000 A 
ATOM     19  C   UNL     1      28.162  -2.253  10.128  0.00  0.00    +0.000 A 
BRANCH  19   8
ATOM      8  N   UNL     1      26.784  -2.234   9.825  0.00  0.00    +0.000 N 
ATOM     22  H   UNL     1      26.126  -2.710  10.428  0.00  0.00    +0.000 HD
ATOM     23  H   UNL     1      26.454  -1.751   9.000  0.00  0.00    +0.000 HD
ENDBRANCH  19   8
ENDBRANCH   1  10
BRANCH   1   6
ATOM      5  O   UNL     1      31.862  -4.868  12.700  0.00  0.00    +0.000 OA
ATOM      6  N   UNL     1      32.590  -2.641  12.803  0.00  0.00    +0.000 N 
ATOM     13  C   UNL     1      32.206  -3.907  13.386  0.00  0.00    +0.000 C 
ATOM     21  C   UNL     1      32.261  -4.028  14.888  0.00  0.00    +0.000 C 
BRANCH   6   9
ATOM      2  O   UNL     1      32.146  -0.716  14.312  0.00  0.00    +0.000 OA
ATOM      7  N   UNL     1      32.871   0.173  15.095  0.00  0.00    +0.000 NA
ATOM      9  C   UNL     1      33.010  -1.554  13.719  0.00  0.00    +0.000 A 
ATOM     11  C   UNL     1      34.289  -1.280  14.061  0.00  0.00    +0.000 A 
ATOM     12  C   UNL     1      34.149  -0.184  14.929  0.00  0.00    +0.000 A 
ATOM     16  C   UNL     1      35.530  -1.951  13.639  0.00  0.00    +0.000 C 
ATOM     20  C   UNL     1      35.208   0.562  15.628  0.00  0.00    +0.000 C 
ENDBRANCH   6   9
ENDBRANCH   1   6
TORSDOF 4
ENDMDL
MODEL 3
REMARK VINA RESULT:      -6.4      7.927     10.098
REMARK  Name = 6662
REMARK  7 active torsions:
REMARK  status: ('A' for Active; 'I' for Inactive)
REMARK    1  A    between atoms: S_1  and  N_6
REMARK    2  A    between atoms: S_1  and  C_10
REMARK    3  A    between atoms: N_6  and  C_9
REMARK    4  A    between atoms: N_8  and  C_19
REMARK    5  A    between atoms: C_11  and  C_16
REMARK    6  A    between atoms: C_12  and  C_20
REMARK    7  A    between atoms: C_13  and  C_21
REMARK                            x       y       z     vdW  Elec       q    Type
REMARK                         _______ _______ _______ _____ _____    ______ ____
ROOT
ATOM      1  S   UNL     1      32.230  -2.044  13.014  0.00  0.00    +0.000 S 
ATOM      3  O   UNL     1      31.016  -2.193  13.808  0.00  0.00    +0.000 OA
ATOM      4  O   UNL     1      33.364  -1.315  13.566  0.00  0.00    +0.000 OA
ENDROOT
BRANCH   1  10
ATOM     10  C   UNL     1      32.746  -3.655  12.584  0.00  0.00    +0.000 A 
ATOM     14  C   UNL     1      32.046  -4.763  13.062  0.00  0.00    +0.000 A 
ATOM     15  C   UNL     1      33.861  -3.835  11.765  0.00  0.00    +0.000 A 
ATOM     17  C   UNL     1      32.459  -6.050  12.720  0.00  0.00    +0.000 A 
ATOM     18  C   UNL     1      34.274  -5.122  11.423  0.00  0.00    +0.000 A 
ATOM     19  C   UNL     1      33.573  -6.230  11.900  0.00  0.00    +0.000 A 
BRANCH  19   8
ATOM      8  N   UNL     1      33.991  -7.532  11.552  0.00  0.00    +0.000 N 
ATOM     22  H   UNL     1      34.317  -8.167  12.268  0.00  0.00    +0.000 HD
ATOM     23  H   UNL     1      33.970  -7.828  10.585  0.00  0.00    +0.000 HD
ENDBRANCH  19   8
ENDBRANCH   1  10
BRANCH   1   6
ATOM      5  O   UNL     1      33.992  -0.551  10.951  0.00  0.00    +0.000 OA
ATOM      6  N   UNL     1      31.852  -1.355  11.473  0.00  0.00    +0.000 N 
ATOM     13  C   UNL     1      32.811  -0.676  10.632  0.00  0.00    +0.000 C 
ATOM     21  C   UNL     1      32.320  -0.130   9.315  0.00  0.00    +0.000 C 
BRANCH   6   9
ATOM      2  O   UNL     1      29.512  -0.551  11.236  0.00  0.00    +0.000 OA
ATOM      7  N   UNL     1      28.331  -0.968  10.636  0.00  0.00    +0.000 NA
ATOM      9  C   UNL     1      30.458  -1.468  10.984  0.00  0.00    +0.000 A 
ATOM     11  C   UNL     1      29.978  -2.491  10.241  0.00  0.00    +0.000 A 
ATOM     12  C   UNL     1      28.634  -2.129  10.048  0.00  0.00    +0.000 A 
ATOM     16  C   UNL     1      30.675  -3.692   9.749  0.00  0.00    +0.000 C 
ATOM     20  C   UNL     1      27.594  -2.862   9.306  0.00  0.00    +0.000 C 
ENDBRANCH   6   9
ENDBRANCH   1   6
TORSDOF 4
ENDMDL
MODEL 4
REMARK VINA RESULT:      -6.3      2.989      4.616
REMARK  Name = 6662
REMARK  7 active torsions:
REMARK  status: ('A' for Active; 'I' for Inactive)
REMARK    1  A    between atoms: S_1  and  N_6
REMARK    2  A    between atoms: S_1  and  C_10
REMARK    3  A    between atoms: N_6  and  C_9
REMARK    4  A    between atoms: N_8  and  C_19
REMARK    5  A    between atoms: C_11  and  C_16
REMARK    6  A    between atoms: C_12  and  C_20
REMARK    7  A    between atoms: C_13  and  C_21
REMARK                            x       y       z     vdW  Elec       q    Type
REMARK                         _______ _______ _______ _____ _____    ______ ____
ROOT
ATOM      1  S   UNL     1      23.225  -4.063   7.809  0.00  0.00    +0.000 S 
ATOM      3  O   UNL     1      23.817  -4.614   6.596  0.00  0.00    +0.000 OA
ATOM      4  O   UNL     1      23.976  -3.097   8.601  0.00  0.00    +0.000 OA
ENDROOT
BRANCH   1  10
ATOM     10  C   UNL     1      21.701  -3.350   7.341  0.00  0.00    +0.000 A 
ATOM     14  C   UNL     1      21.275  -2.162   7.937  0.00  0.00    +0.000 A 
ATOM     15  C   UNL     1      20.910  -3.968   6.373  0.00  0.00    +0.000 A 
ATOM     17  C   UNL     1      20.058  -1.593   7.565  0.00  0.00    +0.000 A 
ATOM     18  C   UNL     1      19.693  -3.398   6.001  0.00  0.00    +0.000 A 
ATOM     19  C   UNL     1      19.267  -2.211   6.596  0.00  0.00    +0.000 A 
BRANCH  19   8
ATOM      8  N   UNL     1      18.036  -1.634   6.218  0.00  0.00    +0.000 N 
ATOM     22  H   UNL     1      17.859  -0.655   6.396  0.00  0.00    +0.000 HD
ATOM     23  H   UNL     1      17.327  -2.203   5.774  0.00  0.00    +0.000 HD
ENDBRANCH  19   8
ENDBRANCH   1  10
BRANCH   1   6
ATOM      5  O   UNL     1      22.559  -4.084  10.834  0.00  0.00    +0.000 OA
ATOM      6  N   UNL     1      22.725  -5.341   8.861  0.00  0.00    +0.000 N 
ATOM     13  C   UNL     1      22.461  -5.174  10.272  0.00  0.00    +0.000 C 
ATOM     21  C   UNL     1      22.033  -6.392  11.051  0.00  0.00    +0.000 C 
BRANCH   6   9
ATOM      2  O   UNL     1      21.445  -7.087   7.641  0.00  0.00    +0.000 OA
ATOM      7  N   UNL     1      21.622  -8.402   7.227  0.00  0.00    +0.000 NA
ATOM      9  C   UNL     1      22.556  -6.694   8.279  0.00  0.00    +0.000 A 
ATOM     11  C   UNL     1      23.484  -7.677   8.322  0.00  0.00    +0.000 A 
ATOM     12  C   UNL     1      22.848  -8.732   7.646  0.00  0.00    +0.000 A 
ATOM     16  C   UNL     1      24.829  -7.664   8.922  0.00  0.00    +0.000 C 
ATOM     20  C   UNL     1      23.369 -10.082   7.373  0.00  0.00    +0.000 C 
ENDBRANCH   6   9
ENDBRANCH   1   6
TORSDOF 4
ENDMDL
MODEL 5
REMARK VINA RESULT:      -6.2      9.037     11.148
REMARK  Name = 6662
REMARK  7 active torsions:
REMARK  status: ('A' for Active; 'I' for Inactive)
REMARK    1  A    between atoms: S_1  and  N_6
REMARK    2  A    between atoms: S_1  and  C_10
REMARK    3  A    between atoms: N_6  and  C_9
REMARK    4  A    between atoms: N_8  and  C_19
REMARK    5  A    between atoms: C_11  and  C_16
REMARK    6  A    between atoms: C_12  and  C_20
REMARK    7  A    between atoms: C_13  and  C_21
REMARK                            x       y       z     vdW  Elec       q    Type
REMARK                         _______ _______ _______ _____ _____    ______ ____
ROOT
ATOM      1  S   UNL     1      32.661  -2.577  13.447  0.00  0.00    +0.000 S 
ATOM      3  O   UNL     1      33.673  -3.616  13.288  0.00  0.00    +0.000 OA
ATOM      4  O   UNL     1      31.377  -2.912  14.049  0.00  0.00    +0.000 OA
ENDROOT
BRANCH   1  10
ATOM     10  C   UNL     1      33.404  -1.295  14.370  0.00  0.00    +0.000 A 
ATOM     14  C   UNL     1      32.810  -0.033  14.414  0.00  0.00    +0.000 A 
ATOM     15  C   UNL     1      34.591  -1.532  15.063  0.00  0.00    +0.000 A 
ATOM     17  C   UNL     1      33.403   0.992  15.150  0.00  0.00    +0.000 A 
ATOM     18  C   UNL     1      35.184  -0.507  15.799  0.00  0.00    +0.000 A 
ATOM     19  C   UNL     1      34.590   0.755  15.843  0.00  0.00    +0.000 A 
BRANCH  19   8
ATOM      8  N   UNL     1      35.190   1.791  16.590  0.00  0.00    +0.000 N 
ATOM     22  H   UNL     1      34.613   2.469  17.069  0.00  0.00    +0.000 HD
ATOM     23  H   UNL     1      36.198   1.859  16.640  0.00  0.00    +0.000 HD
ENDBRANCH  19   8
ENDBRANCH   1  10
BRANCH   1   6
ATOM      5  O   UNL     1      34.551  -1.133  11.463  0.00  0.00    +0.000 OA
ATOM      6  N   UNL     1      32.354  -1.808  11.929  0.00  0.00    +0.000 N 
ATOM     13  C   UNL     1      33.369  -1.166  11.125  0.00  0.00    +0.000 C 
ATOM     21  C   UNL     1      32.935  -0.540   9.824  0.00  0.00    +0.000 C 
BRANCH   6   9
ATOM      2  O   UNL     1      30.033  -0.926  11.815  0.00  0.00    +0.000 OA
ATOM      7  N   UNL     1      28.849  -1.212  11.146  0.00  0.00    +0.000 NA
ATOM      9  C   UNL     1      30.962  -1.809  11.419  0.00  0.00    +0.000 A 
ATOM     11  C   UNL     1      30.469  -2.682  10.512  0.00  0.00    +0.000 A 
ATOM     12  C   UNL     1      29.134  -2.265  10.374  0.00  0.00    +0.000 A 
ATOM     16  C   UNL     1      31.146  -3.799   9.831  0.00  0.00    +0.000 C 
ATOM     20  C   UNL     1      28.087  -2.841   9.514  0.00  0.00    +0.000 C 
ENDBRANCH   6   9
ENDBRANCH   1   6
TORSDOF 4
ENDMDL
MODEL 6
REMARK VINA RESULT:      -6.1      8.287     10.561
REMARK  Name = 6662
REMARK  7 active torsions:
REMARK  status: ('A' for Active; 'I' for Inactive)
REMARK    1  A    between atoms: S_1  and  N_6
REMARK    2  A    between atoms: S_1  and  C_10
REMARK    3  A    between atoms: N_6  and  C_9
REMARK    4  A    between atoms: N_8  and  C_19
REMARK    5  A    between atoms: C_11  and  C_16
REMARK    6  A    between atoms: C_12  and  C_20
REMARK    7  A    between atoms: C_13  and  C_21
REMARK                            x       y       z     vdW  Elec       q    Type
REMARK                         _______ _______ _______ _____ _____    ______ ____
ROOT
ATOM      1  S   UNL     1      31.479  -2.377  13.248  0.00  0.00    +0.000 S 
ATOM      3  O   UNL     1      31.581  -3.614  14.013  0.00  0.00    +0.000 OA
ATOM      4  O   UNL     1      30.373  -1.463  13.505  0.00  0.00    +0.000 OA
ENDROOT
BRANCH   1  10
ATOM     10  C   UNL     1      32.984  -1.522  13.479  0.00  0.00    +0.000 A 
ATOM     14  C   UNL     1      33.022  -0.379  14.276  0.00  0.00    +0.000 A 
ATOM     15  C   UNL     1      34.149  -1.982  12.863  0.00  0.00    +0.000 A 
ATOM     17  C   UNL     1      34.223   0.305  14.460  0.00  0.00    +0.000 A 
ATOM     18  C   UNL     1      35.350  -1.299  13.046  0.00  0.00    +0.000 A 
ATOM     19  C   UNL     1      35.388  -0.156  13.844  0.00  0.00    +0.000 A 
BRANCH  19   8
ATOM      8  N   UNL     1      36.604   0.534  14.031  0.00  0.00    +0.000 N 
ATOM     22  H   UNL     1      36.776   1.401  13.539  0.00  0.00    +0.000 HD
ATOM     23  H   UNL     1      37.309   0.158  14.652  0.00  0.00    +0.000 HD
ENDBRANCH  19   8
ENDBRANCH   1  10
BRANCH   1   6
ATOM      5  O   UNL     1      32.182  -4.960  11.692  0.00  0.00    +0.000 OA
ATOM      6  N   UNL     1      31.505  -2.720  11.553  0.00  0.00    +0.000 N 
ATOM     13  C   UNL     1      31.872  -3.999  10.991  0.00  0.00    +0.000 C 
ATOM     21  C   UNL     1      31.843  -4.134   9.489  0.00  0.00    +0.000 C 
BRANCH   6   9
ATOM      2  O   UNL     1      32.005  -0.749  10.124  0.00  0.00    +0.000 OA
ATOM      7  N   UNL     1      31.319   0.125   9.289  0.00  0.00    +0.000 NA
ATOM      9  C   UNL     1      31.127  -1.633  10.619  0.00  0.00    +0.000 A 
ATOM     11  C   UNL     1      29.875  -1.404  10.163  0.00  0.00    +0.000 A 
ATOM     12  C   UNL     1      30.048  -0.286   9.329  0.00  0.00    +0.000 A 
ATOM     16  C   UNL     1      28.629  -2.133  10.457  0.00  0.00    +0.000 C 
ATOM     20  C   UNL     1      29.028   0.429   8.545  0.00  0.00    +0.000 C 
ENDBRANCH   6   9
ENDBRANCH   1   6
TORSDOF 4
ENDMDL
MODEL 7
REMARK VINA RESULT:      -6.0      7.983      9.780
REMARK  Name = 6662
REMARK  7 active torsions:
REMARK  status: ('A' for Active; 'I' for Inactive)
REMARK    1  A    between atoms: S_1  and  N_6
REMARK    2  A    between atoms: S_1  and  C_10
REMARK    3  A    between atoms: N_6  and  C_9
REMARK    4  A    between atoms: N_8  and  C_19
REMARK    5  A    between atoms: C_11  and  C_16
REMARK    6  A    between atoms: C_12  and  C_20
REMARK    7  A    between atoms: C_13  and  C_21
REMARK                            x       y       z     vdW  Elec       q    Type
REMARK                         _______ _______ _______ _____ _____    ______ ____
ROOT
ATOM      1  S   UNL     1      32.338  -2.330  11.367  0.00  0.00    +0.000 S 
ATOM      3  O   UNL     1      33.144  -2.401  10.153  0.00  0.00    +0.000 OA
ATOM      4  O   UNL     1      32.556  -1.242  12.311  0.00  0.00    +0.000 OA
ENDROOT
BRANCH   1  10
ATOM     10  C   UNL     1      30.668  -2.310  10.856  0.00  0.00    +0.000 A 
ATOM     14  C   UNL     1      29.769  -1.423  11.448  0.00  0.00    +0.000 A 
ATOM     15  C   UNL     1      30.233  -3.182   9.858  0.00  0.00    +0.000 A 
ATOM     17  C   UNL     1      28.435  -1.407  11.042  0.00  0.00    +0.000 A 
ATOM     18  C   UNL     1      28.900  -3.166   9.451  0.00  0.00    +0.000 A 
ATOM     19  C   UNL     1      28.001  -2.279  10.043  0.00  0.00    +0.000 A 
BRANCH  19   8
ATOM      8  N   UNL     1      26.652  -2.262   9.630  0.00  0.00    +0.000 N 
ATOM     22  H   UNL     1      26.337  -2.889   8.900  0.00  0.00    +0.000 HD
ATOM     23  H   UNL     1      26.000  -1.618  10.058  0.00  0.00    +0.000 HD
ENDBRANCH  19   8
ENDBRANCH   1  10
BRANCH   1   6
ATOM      5  O   UNL     1      31.442  -3.094  14.231  0.00  0.00    +0.000 OA
ATOM      6  N   UNL     1      32.439  -3.821  12.237  0.00  0.00    +0.000 N 
ATOM     13  C   UNL     1      31.971  -4.002  13.592  0.00  0.00    +0.000 C 
ATOM     21  C   UNL     1      32.133  -5.368  14.209  0.00  0.00    +0.000 C 
BRANCH   6   9
ATOM      2  O   UNL     1      32.331  -5.862  10.823  0.00  0.00    +0.000 OA
ATOM      7  N   UNL     1      33.202  -6.823  10.325  0.00  0.00    +0.000 NA
ATOM      9  C   UNL     1      33.042  -4.987  11.549  0.00  0.00    +0.000 A 
ATOM     11  C   UNL     1      34.356  -5.305  11.571  0.00  0.00    +0.000 A 
ATOM     12  C   UNL     1      34.406  -6.470  10.786  0.00  0.00    +0.000 A 
ATOM     16  C   UNL     1      35.470  -4.616  12.245  0.00  0.00    +0.000 C 
ATOM     20  C   UNL     1      35.583  -7.285  10.445  0.00  0.00    +0.000 C 
ENDBRANCH   6   9
ENDBRANCH   1   6
TORSDOF 4
ENDMDL
MODEL 8
REMARK VINA RESULT:      -6.0      9.453     11.812
REMARK  Name = 6662
REMARK  7 active torsions:
REMARK  status: ('A' for Active; 'I' for Inactive)
REMARK    1  A    between atoms: S_1  and  N_6
REMARK    2  A    between atoms: S_1  and  C_10
REMARK    3  A    between atoms: N_6  and  C_9
REMARK    4  A    between atoms: N_8  and  C_19
REMARK    5  A    between atoms: C_11  and  C_16
REMARK    6  A    between atoms: C_12  and  C_20
REMARK    7  A    between atoms: C_13  and  C_21
REMARK                            x       y       z     vdW  Elec       q    Type
REMARK                         _______ _______ _______ _____ _____    ______ ____
ROOT
ATOM      1  S   UNL     1      32.618  -2.807  13.275  0.00  0.00    +0.000 S 
ATOM      3  O   UNL     1      31.976  -2.890  14.581  0.00  0.00    +0.000 OA
ATOM      4  O   UNL     1      33.513  -3.873  12.845  0.00  0.00    +0.000 OA
ENDROOT
BRANCH   1  10
ATOM     10  C   UNL     1      31.339  -2.634  12.100  0.00  0.00    +0.000 A 
ATOM     14  C   UNL     1      31.298  -3.472  10.985  0.00  0.00    +0.000 A 
ATOM     15  C   UNL     1      30.358  -1.657  12.274  0.00  0.00    +0.000 A 
ATOM     17  C   UNL     1      30.277  -3.333  10.045  0.00  0.00    +0.000 A 
ATOM     18  C   UNL     1      29.338  -1.518  11.335  0.00  0.00    +0.000 A 
ATOM     19  C   UNL     1      29.296  -2.356  10.221  0.00  0.00    +0.000 A 
BRANCH  19   8
ATOM      8  N   UNL     1      28.262  -2.217   9.271  0.00  0.00    +0.000 N 
ATOM     22  H   UNL     1      27.343  -1.912   9.564  0.00  0.00    +0.000 HD
ATOM     23  H   UNL     1      28.437  -2.430   8.298  0.00  0.00    +0.000 HD
ENDBRANCH  19   8
ENDBRANCH   1  10
BRANCH   1   6
ATOM      5  O   UNL     1      33.662  -1.288  10.786  0.00  0.00    +0.000 OA
ATOM      6  N   UNL     1      33.464  -1.306  13.122  0.00  0.00    +0.000 N 
ATOM     13  C   UNL     1      33.890  -0.740  11.863  0.00  0.00    +0.000 C 
ATOM     21  C   UNL     1      34.618   0.580  11.902  0.00  0.00    +0.000 C 
BRANCH   6   9
ATOM      2  O   UNL     1      32.932   0.340  14.907  0.00  0.00    +0.000 OA
ATOM      7  N   UNL     1      33.529   0.856  16.050  0.00  0.00    +0.000 NA
ATOM      9  C   UNL     1      33.771  -0.553  14.361  0.00  0.00    +0.000 A 
ATOM     11  C   UNL     1      34.912  -0.670  15.076  0.00  0.00    +0.000 A 
ATOM     12  C   UNL     1      34.712   0.239  16.130  0.00  0.00    +0.000 A 
ATOM     16  C   UNL     1      36.084  -1.527  14.828  0.00  0.00    +0.000 C 
ATOM     20  C   UNL     1      35.622   0.554  17.243  0.00  0.00    +0.000 C 
ENDBRANCH   6   9
ENDBRANCH   1   6
TORSDOF 4
ENDMDL
MODEL 9
REMARK VINA RESULT:      -6.0      7.916     10.640
REMARK  Name = 6662
REMARK  7 active torsions:
REMARK  status: ('A' for Active; 'I' for Inactive)
REMARK    1  A    between atoms: S_1  and  N_6
REMARK    2  A    between atoms: S_1  and  C_10
REMARK    3  A    between atoms: N_6  and  C_9
REMARK    4  A    between atoms: N_8  and  C_19
REMARK    5  A    between atoms: C_11  and  C_16
REMARK    6  A    between atoms: C_12  and  C_20
REMARK    7  A    between atoms: C_13  and  C_21
REMARK                            x       y       z     vdW  Elec       q    Type
REMARK                         _______ _______ _______ _____ _____    ______ ____
ROOT
ATOM      1  S   UNL     1      32.191  -2.499  11.788  0.00  0.00    +0.000 S 
ATOM      3  O   UNL     1      32.260  -1.470  12.819  0.00  0.00    +0.000 OA
ATOM      4  O   UNL     1      32.464  -3.887  12.138  0.00  0.00    +0.000 OA
ENDROOT
BRANCH   1  10
ATOM     10  C   UNL     1      30.596  -2.395  11.086  0.00  0.00    +0.000 A 
ATOM     14  C   UNL     1      29.674  -1.475  11.583  0.00  0.00    +0.000 A 
ATOM     15  C   UNL     1      30.243  -3.235  10.029  0.00  0.00    +0.000 A 
ATOM     17  C   UNL     1      28.399  -1.392  11.023  0.00  0.00    +0.000 A 
ATOM     18  C   UNL     1      28.969  -3.153   9.470  0.00  0.00    +0.000 A 
ATOM     19  C   UNL     1      28.047  -2.232   9.966  0.00  0.00    +0.000 A 
BRANCH  19   8
ATOM      8  N   UNL     1      26.758  -2.148   9.398  0.00  0.00    +0.000 N 
ATOM     22  H   UNL     1      26.579  -2.548   8.487  0.00  0.00    +0.000 HD
ATOM     23  H   UNL     1      26.014  -1.681   9.900  0.00  0.00    +0.000 HD
ENDBRANCH  19   8
ENDBRANCH   1  10
BRANCH   1   6
ATOM      5  O   UNL     1      33.383  -4.208   9.497  0.00  0.00    +0.000 OA
ATOM      6  N   UNL     1      33.209  -2.075  10.456  0.00  0.00    +0.000 N 
ATOM     13  C   UNL     1      33.686  -3.016   9.468  0.00  0.00    +0.000 C 
ATOM     21  C   UNL     1      34.568  -2.484   8.367  0.00  0.00    +0.000 C 
BRANCH   6   9
ATOM      2  O   UNL     1      34.741  -0.158  10.851  0.00  0.00    +0.000 OA
ATOM      7  N   UNL     1      34.812   1.193  10.532  0.00  0.00    +0.000 NA
ATOM      9  C   UNL     1      33.616  -0.656  10.317  0.00  0.00    +0.000 A 
ATOM     11  C   UNL     1      32.917   0.289   9.649  0.00  0.00    +0.000 A 
ATOM     12  C   UNL     1      33.711   1.436   9.814  0.00  0.00    +0.000 A 
ATOM     16  C   UNL     1      31.640   0.165   8.925  0.00  0.00    +0.000 C 
ATOM     20  C   UNL     1      33.462   2.795   9.304  0.00  0.00    +0.000 C 
ENDBRANCH   6   9
ENDBRANCH   1   6
TORSDOF 4
ENDMDL
