MODEL        1
REMARK  Name = 6470079
REMARK  2 active torsions:
REMARK  status: ('A' for Active; 'I' for Inactive)
REMARK    1  A    between atoms: S_2  and  N_6
REMARK    2  A    between atoms: S_2  and  C_8
REMARK                            x       y       z     vdW  Elec       q    Type
REMARK                         _______ _______ _______ _____ _____    ______ ____
ROOT
ATOM      2  S   UNL     1       0.376   1.709   0.266  0.00  0.00    +0.000 S 
ATOM      3  O   UNL     1       0.059   3.026  -0.272  0.00  0.00    +0.000 OA
ATOM      4  O   UNL     1       0.885   1.594   1.627  0.00  0.00    +0.000 OA
ENDROOT
BRANCH   2   8
ATOM      1 BR   UNL     1      -4.867  -1.972  -0.222  0.00  0.00    +0.000 Br
ATOM      8  C   UNL     1      -1.048   0.708   0.133  0.00  0.00    +0.000 A 
ATOM      9  C   UNL     1      -1.220  -0.378   0.991  0.00  0.00    +0.000 A 
ATOM     10  C   UNL     1      -2.015   0.996  -0.830  0.00  0.00    +0.000 A 
ATOM     12  C   UNL     1      -2.358  -1.177   0.885  0.00  0.00    +0.000 A 
ATOM     13  C   UNL     1      -3.153   0.197  -0.936  0.00  0.00    +0.000 A 
ATOM     14  C   UNL     1      -3.325  -0.889  -0.079  0.00  0.00    +0.000 A 
ENDBRANCH   2   8
BRANCH   2   6
ATOM      5  O   UNL     1       3.397  -1.580   0.737  0.00  0.00    +0.000 OA
ATOM      6  N   UNL     1       1.446   0.914  -0.800  0.00  0.00    +0.000 N 
ATOM      7  N   UNL     1       2.426  -0.588   0.804  0.00  0.00    +0.000 NA
ATOM     11  C   UNL     1       2.338  -0.124  -0.438  0.00  0.00    +0.000 A 
ATOM     15  C   UNL     1       3.206  -0.762  -1.329  0.00  0.00    +0.000 A 
ATOM     16  C   UNL     1       3.853  -1.674  -0.538  0.00  0.00    +0.000 A 
ATOM     17  H   UNL     1       1.518   1.267  -1.763  0.00  0.00    +0.000 HD
ENDBRANCH   2   6
TORSDOF 2
ENDMDL
MODEL        2
REMARK  Name = 4596756
REMARK  3 active torsions:
REMARK  status: ('A' for Active; 'I' for Inactive)
REMARK    1  A    between atoms: S_4  and  N_8
REMARK    2  A    between atoms: S_4  and  C_10
REMARK    3  A    between atoms: C_18  and  C_19
REMARK                            x       y       z     vdW  Elec       q    Type
REMARK                         _______ _______ _______ _____ _____    ______ ____
ROOT
ATOM      4  S   UNL     1       0.253  -2.167  -0.624  0.00  0.00    +0.000 S 
ATOM      5  O   UNL     1       0.513  -2.034  -2.051  0.00  0.00    +0.000 OA
ATOM      6  O   UNL     1      -0.227  -3.442  -0.109  0.00  0.00    +0.000 OA
ENDROOT
BRANCH   4  10
ATOM      1 CL   UNL     1      -0.973  -1.928   2.359  0.00  0.00    +0.000 Cl
ATOM      2 CL   UNL     1      -2.637   2.100  -2.112  0.00  0.00    +0.000 Cl
ATOM      3 CL   UNL     1      -3.852   2.327   0.879  0.00  0.00    +0.000 Cl
ATOM     10  C   UNL     1      -0.897  -0.921  -0.180  0.00  0.00    +0.000 A 
ATOM     11  C   UNL     1      -1.420  -0.824   1.109  0.00  0.00    +0.000 A 
ATOM     12  C   UNL     1      -1.284  -0.009  -1.161  0.00  0.00    +0.000 A 
ATOM     14  C   UNL     1      -2.195   1.002  -0.853  0.00  0.00    +0.000 A 
ATOM     15  C   UNL     1      -2.331   0.187   1.417  0.00  0.00    +0.000 A 
ATOM     17  C   UNL     1      -2.719   1.099   0.436  0.00  0.00    +0.000 A 
ENDBRANCH   4  10
BRANCH   4   8
ATOM      7  O   UNL     1       2.619   1.528  -0.826  0.00  0.00    +0.000 OA
ATOM      8  N   UNL     1       1.670  -1.692   0.229  0.00  0.00    +0.000 N 
ATOM      9  N   UNL     1       2.074   0.278  -1.092  0.00  0.00    +0.000 NA
ATOM     13  C   UNL     1       2.141  -0.343   0.067  0.00  0.00    +0.000 A 
ATOM     16  C   UNL     1       2.695   0.401   1.096  0.00  0.00    +0.000 A 
ATOM     18  C   UNL     1       2.986   1.589   0.480  0.00  0.00    +0.000 A 
ATOM     19  C   UNL     1       3.585   2.849   0.935  0.00  0.00    +0.000 C 
ATOM     20  H   UNL     1       1.821  -2.116   1.154  0.00  0.00    +0.000 HD
ENDBRANCH   4   8
TORSDOF 2
ENDMDL
MODEL        3
REMARK  Name = 2813558
REMARK  5 active torsions:
REMARK  status: ('A' for Active; 'I' for Inactive)
REMARK    1  A    between atoms: N_5  and  C_14
REMARK    2  A    between atoms: C_6  and  C_7
REMARK    3  A    between atoms: C_6  and  C_8
REMARK    4  A    between atoms: C_6  and  C_9
REMARK    5  A    between atoms: C_6  and  C_10
REMARK                            x       y       z     vdW  Elec       q    Type
REMARK                         _______ _______ _______ _____ _____    ______ ____
ROOT
ATOM      1  O   UNL     1      -3.081  -1.209   0.001  0.00  0.00    +0.000 OA
ATOM      2  O   UNL     1       1.175  -1.362   0.000  0.00  0.00    +0.000 OA
ATOM      3  N   UNL     1      -1.692  -1.164   0.001  0.00  0.00    +0.000 NA
ATOM      4  N   UNL     1      -0.092   0.610  -0.002  0.00  0.00    +0.000 N 
ATOM      5  N   UNL     1       2.213   0.733  -0.001  0.00  0.00    +0.000 N 
ATOM      7  C   UNL     1      -3.492   0.049   0.000  0.00  0.00    +0.000 A 
ATOM     11  C   UNL     1      -2.534   0.952  -0.001  0.00  0.00    +0.000 A 
ATOM     12  C   UNL     1      -1.389   0.138  -0.001  0.00  0.00    +0.000 A 
ATOM     13  C   UNL     1       1.111  -0.137  -0.001  0.00  0.00    +0.000 C 
ATOM     20  H   UNL     1      -0.004   1.623  -0.003  0.00  0.00    +0.000 HD
ATOM     21  H   UNL     1       2.007   1.729  -0.001  0.00  0.00    +0.000 HD
ENDROOT
BRANCH   5  14
ATOM     14  C   UNL     1       3.588   0.398  -0.001  0.00  0.00    +0.000 A 
ATOM     15  C   UNL     1       4.533   1.411   0.001  0.00  0.00    +0.000 A 
ATOM     16  C   UNL     1       3.960  -0.936  -0.002  0.00  0.00    +0.000 A 
ATOM     17  C   UNL     1       5.888   1.081   0.002  0.00  0.00    +0.000 A 
ATOM     18  C   UNL     1       5.316  -1.267  -0.001  0.00  0.00    +0.000 A 
ATOM     19  C   UNL     1       6.279  -0.258   0.001  0.00  0.00    +0.000 A 
ENDBRANCH   5  14
BRANCH   7   6
ATOM      6  C   UNL     1      -5.033   0.195   0.000  0.00  0.00    +0.000 C 
ATOM      8  C   UNL     1      -5.487   0.966  -1.258  0.00  0.00    +0.000 C 
ATOM      9  C   UNL     1      -5.487   0.961   1.262  0.00  0.00    +0.000 C 
ATOM     10  C   UNL     1      -5.774  -1.160  -0.002  0.00  0.00    +0.000 C 
ENDBRANCH   7   6
TORSDOF 2
ENDMDL
MODEL        4
REMARK  Name = 2730383
REMARK  5 active torsions:
REMARK  status: ('A' for Active; 'I' for Inactive)
REMARK    1  A    between atoms: N_3  and  C_6
REMARK    2  A    between atoms: N_3  and  C_13
REMARK    3  A    between atoms: N_4  and  C_13
REMARK    4  A    between atoms: C_7  and  C_16
REMARK    5  A    between atoms: C_15  and  C_17
REMARK                            x       y       z     vdW  Elec       q    Type
REMARK                         _______ _______ _______ _____ _____    ______ ____
ROOT
ATOM      1  S   UNL     1       1.254   3.166   0.077  0.00  0.00    +0.000 S 
ATOM     13  C   UNL     1       0.389   1.723  -0.026  0.00  0.00    +0.000 C 
ENDROOT
BRANCH  13   4
ATOM      2  O   UNL     1       4.362  -0.059   0.296  0.00  0.00    +0.000 OA
ATOM      4  N   UNL     1       0.911   0.443   0.011  0.00  0.00    +0.000 N 
ATOM      5  N   UNL     1       3.241   0.749   0.441  0.00  0.00    +0.000 NA
ATOM     12  C   UNL     1       2.253  -0.014   0.025  0.00  0.00    +0.000 A 
ATOM     14  C   UNL     1       2.628  -1.281  -0.391  0.00  0.00    +0.000 A 
ATOM     15  C   UNL     1       3.985  -1.265  -0.200  0.00  0.00    +0.000 A 
ATOM     17  C   UNL     1       5.053  -2.248  -0.417  0.00  0.00    +0.000 C 
ATOM     19  H   UNL     1       0.292  -0.295  -0.304  0.00  0.00    +0.000 HD
ENDBRANCH  13   4
BRANCH  13   3
ATOM      3  N   UNL     1      -1.010   1.811  -0.030  0.00  0.00    +0.000 N 
ATOM     18  H   UNL     1      -1.352   2.748  -0.230  0.00  0.00    +0.000 HD
BRANCH   3   6
ATOM      6  C   UNL     1      -2.006   0.834  -0.004  0.00  0.00    +0.000 A 
ATOM      7  C   UNL     1      -3.996  -1.120   0.049  0.00  0.00    +0.000 A 
ATOM      8  C   UNL     1      -3.219   1.056  -0.655  0.00  0.00    +0.000 A 
ATOM      9  C   UNL     1      -1.788  -0.366   0.675  0.00  0.00    +0.000 A 
ATOM     10  C   UNL     1      -4.214   0.079  -0.629  0.00  0.00    +0.000 A 
ATOM     11  C   UNL     1      -2.783  -1.343   0.701  0.00  0.00    +0.000 A 
ATOM     16  C   UNL     1      -5.060  -2.165   0.077  0.00  0.00    +0.000 C 
ENDBRANCH   3   6
ENDBRANCH  13   3
TORSDOF 3
ENDMDL
MODEL        5
REMARK  Name = 1949759
REMARK  8 active torsions:
REMARK  status: ('A' for Active; 'I' for Inactive)
REMARK    1  A    between atoms: S_1  and  N_7
REMARK    2  A    between atoms: S_1  and  C_11
REMARK    3  A    between atoms: N_8  and  C_14
REMARK    4  A    between atoms: N_8  and  C_20
REMARK    5  A    between atoms: N_10  and  C_20
REMARK    6  A    between atoms: C_19  and  C_21
REMARK    7  A    between atoms: C_22  and  C_23
REMARK    8  A    between atoms: C_24  and  C_27
REMARK                            x       y       z     vdW  Elec       q    Type
REMARK                         _______ _______ _______ _____ _____    ______ ____
ROOT
ATOM     11  C   UNL     1      -3.335  -1.520   0.157  0.00  0.00    +0.000 A 
ATOM     12  C   UNL     1      -2.919  -0.592   1.111  0.00  0.00    +0.000 A 
ATOM     13  C   UNL     1      -2.424  -2.021  -0.773  0.00  0.00    +0.000 A 
ATOM     14  C   UNL     1      -0.702  -0.672   0.205  0.00  0.00    +0.000 A 
ATOM     15  C   UNL     1      -1.591  -0.165   1.136  0.00  0.00    +0.000 A 
ATOM     16  C   UNL     1      -1.097  -1.593  -0.749  0.00  0.00    +0.000 A 
ENDROOT
BRANCH  11   1
ATOM      1  S   UNL     1      -4.997  -2.055   0.126  0.00  0.00    +0.000 S 
ATOM      3  O   UNL     1      -5.040  -3.369  -0.503  0.00  0.00    +0.000 OA
ATOM      4  O   UNL     1      -5.554  -1.881   1.462  0.00  0.00    +0.000 OA
BRANCH   1   7
ATOM      5  O   UNL     1      -6.943   1.950   0.705  0.00  0.00    +0.000 OA
ATOM      7  N   UNL     1      -5.699  -0.909  -0.927  0.00  0.00    +0.000 N 
ATOM      9  N   UNL     1      -6.315   0.711   0.742  0.00  0.00    +0.000 NA
ATOM     17  C   UNL     1      -6.271   0.323  -0.527  0.00  0.00    +0.000 A 
ATOM     18  C   UNL     1      -6.840   1.247  -1.408  0.00  0.00    +0.000 A 
ATOM     19  C   UNL     1      -7.250   2.259  -0.581  0.00  0.00    +0.000 A 
ATOM     21  C   UNL     1      -7.923   3.544  -0.805  0.00  0.00    +0.000 C 
ATOM     31  H   UNL     1      -5.797  -1.162  -1.918  0.00  0.00    +0.000 HD
ENDBRANCH   1   7
ENDBRANCH  11   1
BRANCH  14   8
ATOM      8  N   UNL     1       0.648  -0.237   0.230  0.00  0.00    +0.000 N 
ATOM     32  H   UNL     1       1.266  -0.868  -0.275  0.00  0.00    +0.000 HD
BRANCH   8  20
ATOM      2  S   UNL     1       0.498   2.420   1.002  0.00  0.00    +0.000 S 
ATOM     20  C   UNL     1       1.234   0.980   0.552  0.00  0.00    +0.000 C 
BRANCH  20  10
ATOM      6  O   UNL     1       3.227  -1.170  -0.258  0.00  0.00    +0.000 OA
ATOM     10  N   UNL     1       2.640   0.992   0.444  0.00  0.00    +0.000 N 
ATOM     24  C   UNL     1       3.530  -0.027   0.064  0.00  0.00    +0.000 C 
ATOM     33  H   UNL     1       3.052   1.892   0.678  0.00  0.00    +0.000 HD
BRANCH  24  27
ATOM     23  C   UNL     1       5.938  -0.396  -0.224  0.00  0.00    +0.000 C 
ATOM     27  C   UNL     1       4.944   0.446   0.097  0.00  0.00    +0.000 C 
BRANCH  23  22
ATOM     22  C   UNL     1       7.368  -0.042  -0.218  0.00  0.00    +0.000 A 
ATOM     25  C   UNL     1       7.737   1.292  -0.278  0.00  0.00    +0.000 A 
ATOM     26  C   UNL     1       8.317  -1.050  -0.153  0.00  0.00    +0.000 A 
ATOM     28  C   UNL     1       9.091   1.627  -0.273  0.00  0.00    +0.000 A 
ATOM     29  C   UNL     1       9.671  -0.715  -0.148  0.00  0.00    +0.000 A 
ATOM     30  C   UNL     1      10.058   0.624  -0.208  0.00  0.00    +0.000 A 
ENDBRANCH  23  22
ENDBRANCH  24  27
ENDBRANCH  20  10
ENDBRANCH   8  20
ENDBRANCH  14   8
TORSDOF 7
ENDMDL
MODEL        6
REMARK  Name = 1181036
REMARK  5 active torsions:
REMARK  status: ('A' for Active; 'I' for Inactive)
REMARK    1  A    between atoms: S_1  and  N_7
REMARK    2  A    between atoms: S_1  and  C_19
REMARK    3  A    between atoms: N_6  and  C_16
REMARK    4  A    between atoms: C_9  and  C_15
REMARK    5  A    between atoms: C_24  and  C_25
REMARK                            x       y       z     vdW  Elec       q    Type
REMARK                         _______ _______ _______ _____ _____    ______ ____
ROOT
ATOM     16  C   UNL     1      -1.596  -0.178  -0.460  0.00  0.00    +0.000 A 
ATOM     17  C   UNL     1      -0.736  -0.171  -1.546  0.00  0.00    +0.000 A 
ATOM     18  C   UNL     1      -1.177   0.231   0.796  0.00  0.00    +0.000 A 
ATOM     19  C   UNL     1       1.017   0.673  -0.114  0.00  0.00    +0.000 A 
ATOM     20  C   UNL     1       0.580   0.258  -1.371  0.00  0.00    +0.000 A 
ATOM     21  C   UNL     1       0.139   0.660   0.970  0.00  0.00    +0.000 A 
ENDROOT
BRANCH  16   6
ATOM      2  O   UNL     1      -3.860  -0.393   1.514  0.00  0.00    +0.000 OA
ATOM      6  N   UNL     1      -2.931  -0.613  -0.636  0.00  0.00    +0.000 N 
ATOM     15  C   UNL     1      -3.930  -0.688   0.326  0.00  0.00    +0.000 C 
ATOM     26  H   UNL     1      -3.140  -0.948  -1.573  0.00  0.00    +0.000 HD
BRANCH  15   9
ATOM      9  C   UNL     1      -5.212  -1.202  -0.264  0.00  0.00    +0.000 C 
ATOM     10  C   UNL     1      -6.293  -1.341   0.809  0.00  0.00    +0.000 C 
ATOM     11  C   UNL     1      -5.647  -0.314  -1.431  0.00  0.00    +0.000 C 
ATOM     12  C   UNL     1      -6.910  -0.007   1.228  0.00  0.00    +0.000 C 
ATOM     13  C   UNL     1      -6.254   1.014  -0.980  0.00  0.00    +0.000 C 
ATOM     14  C   UNL     1      -7.380   0.804   0.026  0.00  0.00    +0.000 C 
ENDBRANCH  15   9
ENDBRANCH  16   6
BRANCH  19   1
ATOM      1  S   UNL     1       2.665   1.208   0.105  0.00  0.00    +0.000 S 
ATOM      3  O   UNL     1       2.696   2.086   1.269  0.00  0.00    +0.000 OA
ATOM      4  O   UNL     1       3.165   1.712  -1.169  0.00  0.00    +0.000 OA
BRANCH   1   7
ATOM      5  O   UNL     1       6.930   0.305   0.021  0.00  0.00    +0.000 OA
ATOM      7  N   UNL     1       3.489  -0.250   0.511  0.00  0.00    +0.000 N 
ATOM      8  N   UNL     1       5.643   0.786   0.233  0.00  0.00    +0.000 NA
ATOM     22  C   UNL     1       4.910  -0.306   0.297  0.00  0.00    +0.000 A 
ATOM     23  C   UNL     1       5.612  -1.490   0.144  0.00  0.00    +0.000 A 
ATOM     24  C   UNL     1       6.899  -1.052  -0.030  0.00  0.00    +0.000 A 
ATOM     25  C   UNL     1       8.182  -1.730  -0.248  0.00  0.00    +0.000 C 
ATOM     27  H   UNL     1       2.977  -1.141   0.491  0.00  0.00    +0.000 HD
ENDBRANCH   1   7
ENDBRANCH  19   1
TORSDOF 4
ENDMDL
MODEL        7
REMARK  Name = 705643
REMARK  4 active torsions:
REMARK  status: ('A' for Active; 'I' for Inactive)
REMARK    1  A    between atoms: S_1  and  N_5
REMARK    2  A    between atoms: S_1  and  C_7
REMARK    3  A    between atoms: C_10  and  C_16
REMARK    4  A    between atoms: C_15  and  C_17
REMARK                            x       y       z     vdW  Elec       q    Type
REMARK                         _______ _______ _______ _____ _____    ______ ____
ROOT
ATOM      1  S   UNL     1       0.240  -2.209  -0.084  0.00  0.00    +0.000 S 
ATOM      2  O   UNL     1       0.912  -3.216   0.729  0.00  0.00    +0.000 OA
ATOM      3  O   UNL     1      -0.084  -2.528  -1.470  0.00  0.00    +0.000 OA
ENDROOT
BRANCH   1   5
ATOM      4  O   UNL     1      -2.635   0.988  -0.979  0.00  0.00    +0.000 OA
ATOM      5  N   UNL     1      -1.189  -1.720   0.744  0.00  0.00    +0.000 N 
ATOM      6  N   UNL     1      -1.933  -0.211  -0.978  0.00  0.00    +0.000 NA
ATOM     11  C   UNL     1      -1.853  -0.524   0.299  0.00  0.00    +0.000 A 
ATOM     14  C   UNL     1      -2.453   0.381   1.159  0.00  0.00    +0.000 A 
ATOM     15  C   UNL     1      -2.939   1.330   0.299  0.00  0.00    +0.000 A 
ATOM     17  C   UNL     1      -3.686   2.580   0.483  0.00  0.00    +0.000 C 
ATOM     18  H   UNL     1      -1.230  -1.911   1.753  0.00  0.00    +0.000 HD
ENDBRANCH   1   5
BRANCH   1   7
ATOM      7  C   UNL     1       1.218  -0.764  -0.057  0.00  0.00    +0.000 A 
ATOM      8  C   UNL     1       2.097  -0.536   1.002  0.00  0.00    +0.000 A 
ATOM      9  C   UNL     1       1.122   0.163  -1.094  0.00  0.00    +0.000 A 
ATOM     10  C   UNL     1       2.782   1.546  -0.013  0.00  0.00    +0.000 A 
ATOM     12  C   UNL     1       2.878   0.619   1.024  0.00  0.00    +0.000 A 
ATOM     13  C   UNL     1       1.903   1.319  -1.073  0.00  0.00    +0.000 A 
ATOM     16  C   UNL     1       3.619   2.781   0.009  0.00  0.00    +0.000 C 
ENDBRANCH   1   7
TORSDOF 2
ENDMDL
MODEL        8
REMARK  Name = 694829
REMARK  5 active torsions:
REMARK  status: ('A' for Active; 'I' for Inactive)
REMARK    1  A    between atoms: S_1  and  N_6
REMARK    2  A    between atoms: S_1  and  C_8
REMARK    3  A    between atoms: O_5  and  C_14
REMARK    4  A    between atoms: O_5  and  C_18
REMARK    5  A    between atoms: C_16  and  C_17
REMARK                            x       y       z     vdW  Elec       q    Type
REMARK                         _______ _______ _______ _____ _____    ______ ____
ROOT
ATOM      1  S   UNL     1      -0.293   1.132   0.173  0.00  0.00    +0.000 S 
ATOM      2  O   UNL     1      -0.308   2.291  -0.713  0.00  0.00    +0.000 OA
ATOM      3  O   UNL     1      -0.737   1.296   1.552  0.00  0.00    +0.000 OA
ENDROOT
BRANCH   1   6
ATOM      4  O   UNL     1      -4.594   0.416   0.165  0.00  0.00    +0.000 OA
ATOM      6  N   UNL     1      -1.197  -0.127  -0.578  0.00  0.00    +0.000 N 
ATOM      7  N   UNL     1      -3.291   0.883   0.043  0.00  0.00    +0.000 NA
ATOM     11  C   UNL     1      -2.614  -0.181  -0.336  0.00  0.00    +0.000 A 
ATOM     15  C   UNL     1      -3.370  -1.333  -0.480  0.00  0.00    +0.000 A 
ATOM     16  C   UNL     1      -4.628  -0.905  -0.149  0.00  0.00    +0.000 A 
ATOM     17  C   UNL     1      -5.938  -1.564  -0.074  0.00  0.00    +0.000 C 
ATOM     19  H   UNL     1      -0.729  -1.011  -0.815  0.00  0.00    +0.000 HD
ENDBRANCH   1   6
BRANCH   1   8
ATOM      8  C   UNL     1       1.331   0.491   0.181  0.00  0.00    +0.000 A 
ATOM      9  C   UNL     1       2.182   0.734  -0.896  0.00  0.00    +0.000 A 
ATOM     10  C   UNL     1       1.777  -0.265   1.266  0.00  0.00    +0.000 A 
ATOM     12  C   UNL     1       3.480   0.221  -0.890  0.00  0.00    +0.000 A 
ATOM     13  C   UNL     1       3.074  -0.777   1.273  0.00  0.00    +0.000 A 
ATOM     14  C   UNL     1       3.926  -0.534   0.195  0.00  0.00    +0.000 A 
BRANCH  14   5
ATOM      5  O   UNL     1       5.192  -1.033   0.201  0.00  0.00    +0.000 OA
ATOM     18  C   UNL     1       6.009  -0.746  -0.932  0.00  0.00    +0.000 C 
ENDBRANCH  14   5
ENDBRANCH   1   8
TORSDOF 3
ENDMDL
MODEL        9
REMARK  Name = 678193
REMARK  9 active torsions:
REMARK  status: ('A' for Active; 'I' for Inactive)
REMARK    1  A    between atoms: S_1  and  N_6
REMARK    2  A    between atoms: S_1  and  C_9
REMARK    3  A    between atoms: N_6  and  C_12
REMARK    4  A    between atoms: N_7  and  C_11
REMARK    5  A    between atoms: C_10  and  C_16
REMARK    6  A    between atoms: C_10  and  C_19
REMARK    7  A    between atoms: C_10  and  C_20
REMARK    8  A    between atoms: C_15  and  C_22
REMARK    9  A    between atoms: C_21  and  C_23
REMARK                            x       y       z     vdW  Elec       q    Type
REMARK                         _______ _______ _______ _____ _____    ______ ____
ROOT
ATOM      9  C   UNL     1      -0.107   1.060   0.200  0.00  0.00    +0.000 A 
ATOM     11  C   UNL     1      -2.790   0.418   0.446  0.00  0.00    +0.000 A 
ATOM     13  C   UNL     1      -0.764   1.262   1.414  0.00  0.00    +0.000 A 
ATOM     14  C   UNL     1      -0.802   0.535  -0.890  0.00  0.00    +0.000 A 
ATOM     17  C   UNL     1      -2.115   0.938   1.538  0.00  0.00    +0.000 A 
ATOM     18  C   UNL     1      -2.153   0.212  -0.766  0.00  0.00    +0.000 A 
ENDROOT
BRANCH  11   7
ATOM      5  O   UNL     1      -4.703  -0.726  -1.559  0.00  0.00    +0.000 OA
ATOM      7  N   UNL     1      -4.161   0.090   0.573  0.00  0.00    +0.000 N 
ATOM     16  C   UNL     1      -5.002  -0.439  -0.403  0.00  0.00    +0.000 C 
ATOM     25  H   UNL     1      -4.560   0.264   1.492  0.00  0.00    +0.000 HD
BRANCH  16  10
ATOM     10  C   UNL     1      -6.420  -0.651   0.135  0.00  0.00    +0.000 C 
ATOM     19  C   UNL     1      -7.462  -0.476  -0.968  0.00  0.00    +0.000 C 
ATOM     20  C   UNL     1      -6.540  -2.038   0.764  0.00  0.00    +0.000 C 
ENDBRANCH  16  10
ENDBRANCH  11   7
BRANCH   9   1
ATOM      1  S   UNL     1       1.584   1.466   0.044  0.00  0.00    +0.000 S 
ATOM      3  O   UNL     1       1.893   2.473   1.052  0.00  0.00    +0.000 OA
ATOM      4  O   UNL     1       1.866   1.762  -1.355  0.00  0.00    +0.000 OA
BRANCH   1   6
ATOM      6  N   UNL     1       2.371   0.000   0.494  0.00  0.00    +0.000 N 
ATOM     24  H   UNL     1       1.847  -0.800   0.867  0.00  0.00    +0.000 HD
BRANCH   6  12
ATOM      2  O   UNL     1       4.378   0.593  -0.845  0.00  0.00    +0.000 OA
ATOM      8  N   UNL     1       5.658   0.099  -1.065  0.00  0.00    +0.000 NA
ATOM     12  C   UNL     1       3.719  -0.211   0.039  0.00  0.00    +0.000 A 
ATOM     15  C   UNL     1       4.555  -1.241   0.410  0.00  0.00    +0.000 A 
ATOM     21  C   UNL     1       5.741  -0.997  -0.304  0.00  0.00    +0.000 A 
ATOM     22  C   UNL     1       4.269  -2.344   1.343  0.00  0.00    +0.000 C 
ATOM     23  C   UNL     1       6.985  -1.784  -0.295  0.00  0.00    +0.000 C 
ENDBRANCH   6  12
ENDBRANCH   1   6
ENDBRANCH   9   1
TORSDOF 5
ENDMDL
MODEL       10
REMARK  Name = 577223
REMARK  6 active torsions:
REMARK  status: ('A' for Active; 'I' for Inactive)
REMARK    1  A    between atoms: S_1  and  N_5
REMARK    2  A    between atoms: S_1  and  C_7
REMARK    3  A    between atoms: C_8  and  C_13
REMARK    4  A    between atoms: C_9  and  C_14
REMARK    5  A    between atoms: C_10  and  C_15
REMARK    6  A    between atoms: C_18  and  C_19
REMARK                            x       y       z     vdW  Elec       q    Type
REMARK                         _______ _______ _______ _____ _____    ______ ____
ROOT
ATOM      1  S   UNL     1       0.011  -1.748  -0.549  0.00  0.00    +0.000 S 
ATOM      2  O   UNL     1       0.561  -3.062  -0.251  0.00  0.00    +0.000 OA
ATOM      3  O   UNL     1      -0.509  -1.482  -1.882  0.00  0.00    +0.000 OA
ENDROOT
BRANCH   1   7
ATOM      7  C   UNL     1       1.258  -0.565  -0.196  0.00  0.00    +0.000 A 
ATOM      8  C   UNL     1       1.866  -0.545   1.059  0.00  0.00    +0.000 A 
ATOM      9  C   UNL     1       1.642   0.356  -1.172  0.00  0.00    +0.000 A 
ATOM     10  C   UNL     1       3.240   1.317   0.364  0.00  0.00    +0.000 A 
ATOM     11  C   UNL     1       2.857   0.396   1.339  0.00  0.00    +0.000 A 
ATOM     12  C   UNL     1       2.633   1.296  -0.891  0.00  0.00    +0.000 A 
ATOM     13  C   UNL     1       1.481  -1.514   2.129  0.00  0.00    +0.000 C 
ATOM     14  C   UNL     1       1.014   0.364  -2.527  0.00  0.00    +0.000 C 
ATOM     15  C   UNL     1       4.300   2.322   0.663  0.00  0.00    +0.000 C 
ENDBRANCH   1   7
BRANCH   1   5
ATOM      4  O   UNL     1      -2.937   1.468  -0.467  0.00  0.00    +0.000 OA
ATOM      5  N   UNL     1      -1.191  -1.385   0.628  0.00  0.00    +0.000 N 
ATOM      6  N   UNL     1      -1.812   0.653  -0.492  0.00  0.00    +0.000 NA
ATOM     16  C   UNL     1      -2.107  -0.311   0.356  0.00  0.00    +0.000 A 
ATOM     17  C   UNL     1      -3.354  -0.201   0.950  0.00  0.00    +0.000 A 
ATOM     18  C   UNL     1      -3.848   0.949   0.395  0.00  0.00    +0.000 A 
ATOM     19  C   UNL     1      -5.106   1.690   0.544  0.00  0.00    +0.000 C 
ATOM     20  H   UNL     1      -1.458  -2.094   1.322  0.00  0.00    +0.000 HD
ENDBRANCH   1   5
TORSDOF 2
ENDMDL
MODEL       11
REMARK  Name = 562945
REMARK  7 active torsions:
REMARK  status: ('A' for Active; 'I' for Inactive)
REMARK    1  A    between atoms: S_1  and  N_5
REMARK    2  A    between atoms: S_1  and  C_11
REMARK    3  A    between atoms: C_7  and  C_8
REMARK    4  A    between atoms: C_7  and  C_9
REMARK    5  A    between atoms: C_8  and  C_10
REMARK    6  A    between atoms: C_10  and  C_16
REMARK    7  A    between atoms: C_19  and  C_20
REMARK                            x       y       z     vdW  Elec       q    Type
REMARK                         _______ _______ _______ _____ _____    ______ ____
ROOT
ATOM      1  S   UNL     1      -1.202   0.949   0.272  0.00  0.00    +0.000 S 
ATOM      2  O   UNL     1      -1.398   2.288  -0.272  0.00  0.00    +0.000 OA
ATOM      3  O   UNL     1      -1.564   0.697   1.661  0.00  0.00    +0.000 OA
ENDROOT
BRANCH   1   5
ATOM      4  O   UNL     1      -5.286  -1.443  -0.424  0.00  0.00    +0.000 OA
ATOM      5  N   UNL     1      -2.022  -0.169  -0.750  0.00  0.00    +0.000 N 
ATOM      6  N   UNL     1      -3.981  -1.560  -0.885  0.00  0.00    +0.000 NA
ATOM     17  C   UNL     1      -3.405  -0.449  -0.475  0.00  0.00    +0.000 A 
ATOM     18  C   UNL     1      -4.231   0.409   0.232  0.00  0.00    +0.000 A 
ATOM     19  C   UNL     1      -5.423  -0.266   0.239  0.00  0.00    +0.000 A 
ATOM     20  C   UNL     1      -6.750   0.021   0.798  0.00  0.00    +0.000 C 
ATOM     21  H   UNL     1      -1.489  -0.909  -1.224  0.00  0.00    +0.000 HD
ENDBRANCH   1   5
BRANCH   1  11
ATOM      9  C   UNL     1       3.142  -0.154  -0.314  0.00  0.00    +0.000 A 
ATOM     11  C   UNL     1       0.476   0.523   0.045  0.00  0.00    +0.000 A 
ATOM     12  C   UNL     1       2.412  -0.770   0.692  0.00  0.00    +0.000 A 
ATOM     13  C   UNL     1       2.563   0.795  -1.142  0.00  0.00    +0.000 A 
ATOM     14  C   UNL     1       1.071  -0.430   0.872  0.00  0.00    +0.000 A 
ATOM     15  C   UNL     1       1.222   1.136  -0.962  0.00  0.00    +0.000 A 
BRANCH   9   7
ATOM      7  C   UNL     1       4.591  -0.522  -0.509  0.00  0.00    +0.000 C 
BRANCH   7   8
ATOM      8  C   UNL     1       5.518   0.365   0.324  0.00  0.00    +0.000 C 
BRANCH   8  10
ATOM     10  C   UNL     1       6.985   0.006   0.091  0.00  0.00    +0.000 C 
ATOM     16  C   UNL     1       7.282  -1.425   0.507  0.00  0.00    +0.000 C 
ENDBRANCH   8  10
ENDBRANCH   7   8
ENDBRANCH   9   7
ENDBRANCH   1  11
TORSDOF 5
ENDMDL
MODEL       12
REMARK  Name = 536471
REMARK  11 active torsions:
REMARK  status: ('A' for Active; 'I' for Inactive)
REMARK    1  A    between atoms: S_1  and  N_14
REMARK    2  A    between atoms: S_1  and  C_24
REMARK    3  A    between atoms: N_12  and  C_16
REMARK    4  A    between atoms: N_12  and  C_19
REMARK    5  A    between atoms: N_13  and  C_16
REMARK    6  A    between atoms: C_16  and  C_17
REMARK    7  A    between atoms: C_16  and  C_18
REMARK    8  A    between atoms: C_20  and  C_21
REMARK    9  A    between atoms: C_21  and  C_25
REMARK   10  A    between atoms: C_25  and  C_28
REMARK   11  A    between atoms: C_31  and  C_32
REMARK                            x       y       z     vdW  Elec       q    Type
REMARK                         _______ _______ _______ _____ _____    ______ ____
ROOT
ATOM     12  N   UNL     1       2.056  -1.616  -0.540  0.00  0.00    +0.000 N 
ATOM     33  H   UNL     1       2.487  -2.330  -1.122  0.00  0.00    +0.000 HD
ENDROOT
BRANCH  12  19
ATOM     19  C   UNL     1       0.693  -1.778  -0.346  0.00  0.00    +0.000 A 
ATOM     22  C   UNL     1       0.046  -1.077   0.671  0.00  0.00    +0.000 A 
ATOM     23  C   UNL     1      -0.031  -2.643  -1.167  0.00  0.00    +0.000 A 
ATOM     24  C   UNL     1      -2.050  -2.104   0.045  0.00  0.00    +0.000 A 
ATOM     26  C   UNL     1      -1.326  -1.240   0.867  0.00  0.00    +0.000 A 
ATOM     27  C   UNL     1      -1.402  -2.806  -0.972  0.00  0.00    +0.000 A 
BRANCH  24   1
ATOM      1  S   UNL     1      -3.766  -2.309   0.291  0.00  0.00    +0.000 S 
ATOM      9  O   UNL     1      -4.149  -3.613  -0.237  0.00  0.00    +0.000 OA
ATOM     10  O   UNL     1      -4.067  -1.981   1.679  0.00  0.00    +0.000 OA
BRANCH   1  14
ATOM     11  O   UNL     1      -4.825   2.028   0.883  0.00  0.00    +0.000 OA
ATOM     14  N   UNL     1      -4.398  -1.089  -0.722  0.00  0.00    +0.000 N 
ATOM     15  N   UNL     1      -4.440   0.694   0.911  0.00  0.00    +0.000 NA
ATOM     29  C   UNL     1      -4.663   0.243  -0.327  0.00  0.00    +0.000 A 
ATOM     30  C   UNL     1      -5.183   1.240  -1.171  0.00  0.00    +0.000 A 
ATOM     31  C   UNL     1      -5.266   2.342  -0.362  0.00  0.00    +0.000 A 
ATOM     32  C   UNL     1      -5.715   3.724  -0.571  0.00  0.00    +0.000 C 
ATOM     35  H   UNL     1      -4.693  -1.355  -1.671  0.00  0.00    +0.000 HD
ENDBRANCH   1  14
ENDBRANCH  24   1
ENDBRANCH  12  19
BRANCH  12  16
ATOM     16  C   UNL     1       2.949  -0.521  -0.126  0.00  0.00    +0.000 C 
BRANCH  16  17
ATOM      2  F   UNL     1       4.419   0.090   1.668  0.00  0.00    +0.000 F 
ATOM      3  F   UNL     1       2.557  -0.886   2.215  0.00  0.00    +0.000 F 
ATOM      4  F   UNL     1       4.154  -2.027   1.275  0.00  0.00    +0.000 F 
ATOM     17  C   UNL     1       3.515  -0.832   1.268  0.00  0.00    +0.000 C 
ENDBRANCH  16  17
BRANCH  16  18
ATOM      5  F   UNL     1       4.747  -1.680  -1.218  0.00  0.00    +0.000 F 
ATOM      6  F   UNL     1       5.012   0.450  -0.844  0.00  0.00    +0.000 F 
ATOM      7  F   UNL     1       3.637  -0.225  -2.395  0.00  0.00    +0.000 F 
ATOM     18  C   UNL     1       4.096  -0.498  -1.152  0.00  0.00    +0.000 C 
ENDBRANCH  16  18
BRANCH  16  13
ATOM      8  O   UNL     1       3.840   2.290   0.407  0.00  0.00    +0.000 OA
ATOM     13  N   UNL     1       2.207   0.743  -0.207  0.00  0.00    +0.000 N 
ATOM     20  C   UNL     1       2.697   2.014   0.059  0.00  0.00    +0.000 C 
ATOM     34  H   UNL     1       1.278   0.696  -0.610  0.00  0.00    +0.000 HD
BRANCH  20  21
ATOM     21  C   UNL     1       1.611   3.066  -0.110  0.00  0.00    +0.000 C 
BRANCH  21  25
ATOM     25  C   UNL     1       2.085   4.491   0.168  0.00  0.00    +0.000 C 
ATOM     28  C   UNL     1       0.961   5.511   0.058  0.00  0.00    +0.000 C 
ENDBRANCH  21  25
ENDBRANCH  20  21
ENDBRANCH  16  13
ENDBRANCH  12  16
TORSDOF 9
ENDMDL
MODEL       13
REMARK  Name = 125483
REMARK  4 active torsions:
REMARK  status: ('A' for Active; 'I' for Inactive)
REMARK    1  A    between atoms: S_1  and  N_6
REMARK    2  A    between atoms: S_1  and  C_9
REMARK    3  A    between atoms: N_8  and  C_17
REMARK    4  A    between atoms: C_16  and  C_18
REMARK                            x       y       z     vdW  Elec       q    Type
REMARK                         _______ _______ _______ _____ _____    ______ ____
ROOT
ATOM      1  S   UNL     1       0.252   2.029   0.090  0.00  0.00    +0.000 S 
ATOM      3  O   UNL     1      -0.110   3.250  -0.619  0.00  0.00    +0.000 OA
ATOM      4  O   UNL     1       0.764   2.116   1.452  0.00  0.00    +0.000 OA
ENDROOT
BRANCH   1   6
ATOM      2  O   UNL     1       3.384  -1.063   0.985  0.00  0.00    +0.000 OA
ATOM      6  N   UNL     1       1.349   1.134  -0.865  0.00  0.00    +0.000 N 
ATOM      7  N   UNL     1       2.379  -0.104   0.923  0.00  0.00    +0.000 NA
ATOM     10  C   UNL     1       2.275   0.185  -0.370  0.00  0.00    +0.000 A 
ATOM     13  C   UNL     1       3.164  -0.537  -1.171  0.00  0.00    +0.000 A 
ATOM     16  C   UNL     1       3.843  -1.312  -0.268  0.00  0.00    +0.000 A 
ATOM     18  C   UNL     1       4.915  -2.308  -0.388  0.00  0.00    +0.000 C 
ATOM     19  H   UNL     1       1.409   1.357  -1.866  0.00  0.00    +0.000 HD
ENDBRANCH   1   6
BRANCH   1   9
ATOM      9  C   UNL     1      -1.137   0.971   0.099  0.00  0.00    +0.000 A 
ATOM     11  C   UNL     1      -2.113   1.093  -0.891  0.00  0.00    +0.000 A 
ATOM     12  C   UNL     1      -1.272   0.005   1.096  0.00  0.00    +0.000 A 
ATOM     14  C   UNL     1      -3.223   0.248  -0.883  0.00  0.00    +0.000 A 
ATOM     15  C   UNL     1      -2.381  -0.840   1.103  0.00  0.00    +0.000 A 
ATOM     17  C   UNL     1      -3.357  -0.718   0.113  0.00  0.00    +0.000 A 
BRANCH  17   8
ATOM      5  O   UNL     1      -4.284  -2.596  -0.523  0.00  0.00    +0.000 OA
ATOM      8  N   UNL     1      -4.449  -1.550   0.120  0.00  0.00    +0.000 NA
ENDBRANCH  17   8
ENDBRANCH   1   9
TORSDOF 3
ENDMDL
MODEL       14
REMARK  Name = 114821
REMARK  5 active torsions:
REMARK  status: ('A' for Active; 'I' for Inactive)
REMARK    1  A    between atoms: S_1  and  N_6
REMARK    2  A    between atoms: S_1  and  C_9
REMARK    3  A    between atoms: O_5  and  N_8
REMARK    4  A    between atoms: N_8  and  C_13
REMARK    5  A    between atoms: C_17  and  C_18
REMARK                            x       y       z     vdW  Elec       q    Type
REMARK                         _______ _______ _______ _____ _____    ______ ____
ROOT
ATOM      1  S   UNL     1       0.647   2.313  -0.182  0.00  0.00    +0.000 S 
ATOM      2  O   UNL     1       0.332   3.513   0.585  0.00  0.00    +0.000 OA
ATOM      3  O   UNL     1       0.982   2.451  -1.594  0.00  0.00    +0.000 OA
ENDROOT
BRANCH   1   6
ATOM      4  O   UNL     1       2.435  -1.622  -0.957  0.00  0.00    +0.000 OA
ATOM      6  N   UNL     1       1.913   1.475   0.632  0.00  0.00    +0.000 N 
ATOM      7  N   UNL     1       2.108  -0.273  -1.011  0.00  0.00    +0.000 NA
ATOM     12  C   UNL     1       2.183   0.116   0.244  0.00  0.00    +0.000 A 
ATOM     16  C   UNL     1       2.538  -0.877   1.142  0.00  0.00    +0.000 A 
ATOM     17  C   UNL     1       2.689  -1.970   0.331  0.00  0.00    +0.000 A 
ATOM     18  C   UNL     1       3.053  -3.372   0.572  0.00  0.00    +0.000 C 
ATOM     19  H   UNL     1       2.055   1.698   1.626  0.00  0.00    +0.000 HD
ENDBRANCH   1   6
BRANCH   1   9
ATOM      9  C   UNL     1      -0.703   1.217  -0.032  0.00  0.00    +0.000 A 
ATOM     10  C   UNL     1      -1.559   1.309   1.066  0.00  0.00    +0.000 A 
ATOM     11  C   UNL     1      -0.927   0.248  -1.011  0.00  0.00    +0.000 A 
ATOM     13  C   UNL     1      -2.861  -0.536   0.208  0.00  0.00    +0.000 A 
ATOM     14  C   UNL     1      -2.637   0.433   1.186  0.00  0.00    +0.000 A 
ATOM     15  C   UNL     1      -2.006  -0.628  -0.890  0.00  0.00    +0.000 A 
BRANCH  13   8
ATOM      8  N   UNL     1      -3.952  -1.421   0.328  0.00  0.00    +0.000 N 
ATOM     20  H   UNL     1      -4.580  -1.354   1.119  0.00  0.00    +0.000 HD
BRANCH   8   5
ATOM      5  O   UNL     1      -4.234  -2.376  -0.616  0.00  0.00    +0.000 OA
ATOM     21  H   UNL     1      -4.125  -3.197  -0.108  0.00  0.00    +0.000 HD
ENDBRANCH   8   5
ENDBRANCH  13   8
ENDBRANCH   1   9
TORSDOF 4
ENDMDL
MODEL       15
REMARK  Name = 99331
REMARK  2 active torsions:
REMARK  status: ('A' for Active; 'I' for Inactive)
REMARK    1  A    between atoms: N_4  and  C_7
REMARK    2  A    between atoms: C_10  and  C_17
REMARK                            x       y       z     vdW  Elec       q    Type
REMARK                         _______ _______ _______ _____ _____    ______ ____
ROOT
ATOM      2  O   UNL     1      -4.516   1.099  -0.001  0.00  0.00    +0.000 OA
ATOM      3  O   UNL     1      -0.267   1.288  -0.002  0.00  0.00    +0.000 OA
ATOM      4  N   UNL     1       0.797  -0.799  -0.001  0.00  0.00    +0.000 N 
ATOM      5  N   UNL     1      -1.510  -0.692  -0.000  0.00  0.00    +0.000 N 
ATOM      6  N   UNL     1      -3.127   1.066  -0.001  0.00  0.00    +0.000 NA
ATOM      8  C   UNL     1      -2.844  -0.221  -0.000  0.00  0.00    +0.000 A 
ATOM      9  C   UNL     1      -3.949  -1.057   0.001  0.00  0.00    +0.000 A 
ATOM     10  C   UNL     1      -4.994  -0.172   0.001  0.00  0.00    +0.000 A 
ATOM     13  C   UNL     1      -0.327   0.063  -0.001  0.00  0.00    +0.000 C 
ATOM     17  C   UNL     1      -6.455  -0.323   0.002  0.00  0.00    +0.000 C 
ATOM     18  H   UNL     1       0.593  -1.796  -0.001  0.00  0.00    +0.000 HD
ATOM     19  H   UNL     1      -1.420  -1.705   0.001  0.00  0.00    +0.000 HD
ENDROOT
BRANCH   4   7
ATOM      1  F   UNL     1       6.160   0.526   0.003  0.00  0.00    +0.000 F 
ATOM      7  C   UNL     1       2.151  -0.465  -0.002  0.00  0.00    +0.000 A 
ATOM     11  C   UNL     1       3.118  -1.470  -0.001  0.00  0.00    +0.000 A 
ATOM     12  C   UNL     1       2.538   0.875  -0.000  0.00  0.00    +0.000 A 
ATOM     14  C   UNL     1       4.472  -1.135  -0.000  0.00  0.00    +0.000 A 
ATOM     15  C   UNL     1       3.893   1.210   0.001  0.00  0.00    +0.000 A 
ATOM     16  C   UNL     1       4.860   0.205   0.001  0.00  0.00    +0.000 A 
ENDBRANCH   4   7
TORSDOF 1
ENDMDL
MODEL       16
REMARK  Name = 65280
REMARK  5 active torsions:
REMARK  status: ('A' for Active; 'I' for Inactive)
REMARK    1  A    between atoms: S_1  and  N_6
REMARK    2  A    between atoms: S_1  and  C_9
REMARK    3  A    between atoms: N_7  and  C_12
REMARK    4  A    between atoms: C_17  and  C_18
REMARK    5  A    between atoms: C_19  and  C_20
REMARK                            x       y       z     vdW  Elec       q    Type
REMARK                         _______ _______ _______ _____ _____    ______ ____
ROOT
ATOM      1  S   UNL     1       1.254  -2.096  -0.371  0.00  0.00    +0.000 S 
ATOM      2  O   UNL     1       1.221  -3.470   0.115  0.00  0.00    +0.000 OA
ATOM      3  O   UNL     1       1.635  -1.833  -1.753  0.00  0.00    +0.000 OA
ENDROOT
BRANCH   1   6
ATOM      4  O   UNL     1       3.586   1.712  -0.851  0.00  0.00    +0.000 OA
ATOM      6  N   UNL     1       2.236  -1.161   0.668  0.00  0.00    +0.000 N 
ATOM      8  N   UNL     1       2.809   0.561  -0.911  0.00  0.00    +0.000 NA
ATOM     15  C   UNL     1       2.895   0.037   0.306  0.00  0.00    +0.000 A 
ATOM     16  C   UNL     1       3.694   0.787   1.175  0.00  0.00    +0.000 A 
ATOM     17  C   UNL     1       4.108   1.836   0.396  0.00  0.00    +0.000 A 
ATOM     18  C   UNL     1       4.961   3.006   0.637  0.00  0.00    +0.000 C 
ATOM     21  H   UNL     1       2.440  -1.535   1.603  0.00  0.00    +0.000 HD
ENDBRANCH   1   6
BRANCH   1   9
ATOM      9  C   UNL     1      -0.315  -1.382  -0.095  0.00  0.00    +0.000 A 
ATOM     10  C   UNL     1      -0.742  -0.311  -0.880  0.00  0.00    +0.000 A 
ATOM     11  C   UNL     1      -1.141  -1.883   0.911  0.00  0.00    +0.000 A 
ATOM     12  C   UNL     1      -2.822  -0.241   0.346  0.00  0.00    +0.000 A 
ATOM     13  C   UNL     1      -1.995   0.259  -0.660  0.00  0.00    +0.000 A 
ATOM     14  C   UNL     1      -2.395  -1.312   1.132  0.00  0.00    +0.000 A 
BRANCH  12   7
ATOM      5  O   UNL     1      -4.201   2.046  -1.046  0.00  0.00    +0.000 OA
ATOM      7  N   UNL     1      -4.076   0.330   0.566  0.00  0.00    +0.000 N 
ATOM     19  C   UNL     1      -4.671   1.400  -0.114  0.00  0.00    +0.000 C 
ATOM     20  C   UNL     1      -6.042   1.716   0.429  0.00  0.00    +0.000 C 
ATOM     22  H   UNL     1      -4.619  -0.091   1.318  0.00  0.00    +0.000 HD
ENDBRANCH  12   7
ENDBRANCH   1   9
TORSDOF 3
ENDMDL
MODEL       17
REMARK  Name = 31771
REMARK  5 active torsions:
REMARK  status: ('A' for Active; 'I' for Inactive)
REMARK    1  A    between atoms: S_1  and  N_5
REMARK    2  A    between atoms: S_1  and  C_8
REMARK    3  A    between atoms: N_7  and  C_17
REMARK    4  A    between atoms: C_10  and  C_14
REMARK    5  A    between atoms: C_11  and  C_18
REMARK                            x       y       z     vdW  Elec       q    Type
REMARK                         _______ _______ _______ _____ _____    ______ ____
ROOT
ATOM      1  S   UNL     1      -0.295  -1.230   0.062  0.00  0.00    +0.000 S 
ATOM      3  O   UNL     1      -0.318  -2.316  -0.910  0.00  0.00    +0.000 OA
ATOM      4  O   UNL     1       0.074  -1.528   1.440  0.00  0.00    +0.000 OA
ENDROOT
BRANCH   1   5
ATOM      2  O   UNL     1       4.035  -0.834   0.290  0.00  0.00    +0.000 OA
ATOM      5  N   UNL     1       0.725   0.016  -0.551  0.00  0.00    +0.000 N 
ATOM      6  N   UNL     1       2.708  -1.188   0.076  0.00  0.00    +0.000 NA
ATOM      9  C   UNL     1       2.130  -0.050  -0.249  0.00  0.00    +0.000 A 
ATOM     10  C   UNL     1       2.976   1.047  -0.268  0.00  0.00    +0.000 A 
ATOM     11  C   UNL     1       4.181   0.499   0.082  0.00  0.00    +0.000 A 
ATOM     14  C   UNL     1       2.684   2.456  -0.580  0.00  0.00    +0.000 C 
ATOM     18  C   UNL     1       5.533   1.044   0.270  0.00  0.00    +0.000 C 
ATOM     19  H   UNL     1       0.327   0.944  -0.740  0.00  0.00    +0.000 HD
ENDBRANCH   1   5
BRANCH   1   8
ATOM      8  C   UNL     1      -1.871  -0.477   0.056  0.00  0.00    +0.000 A 
ATOM     12  C   UNL     1      -2.687  -0.577  -1.071  0.00  0.00    +0.000 A 
ATOM     13  C   UNL     1      -2.313   0.225   1.177  0.00  0.00    +0.000 A 
ATOM     15  C   UNL     1      -3.945   0.025  -1.077  0.00  0.00    +0.000 A 
ATOM     16  C   UNL     1      -3.571   0.827   1.171  0.00  0.00    +0.000 A 
ATOM     17  C   UNL     1      -4.387   0.727   0.044  0.00  0.00    +0.000 A 
BRANCH  17   7
ATOM      7  N   UNL     1      -5.659   1.336   0.039  0.00  0.00    +0.000 N 
ATOM     20  H   UNL     1      -6.252   1.264  -0.777  0.00  0.00    +0.000 HD
ATOM     21  H   UNL     1      -5.980   1.845   0.852  0.00  0.00    +0.000 HD
ENDBRANCH  17   7
ENDBRANCH   1   8
TORSDOF 3
ENDMDL
MODEL       18
REMARK  Name = 6662
REMARK  7 active torsions:
REMARK  status: ('A' for Active; 'I' for Inactive)
REMARK    1  A    between atoms: S_1  and  N_6
REMARK    2  A    between atoms: S_1  and  C_10
REMARK    3  A    between atoms: N_6  and  C_9
REMARK    4  A    between atoms: N_8  and  C_19
REMARK    5  A    between atoms: C_11  and  C_16
REMARK    6  A    between atoms: C_12  and  C_20
REMARK    7  A    between atoms: C_13  and  C_21
REMARK                            x       y       z     vdW  Elec       q    Type
REMARK                         _______ _______ _______ _____ _____    ______ ____
ROOT
ATOM      1  S   UNL     1      -0.330  -1.005   1.264  0.00  0.00    +0.000 S 
ATOM      3  O   UNL     1       0.187  -0.160   2.334  0.00  0.00    +0.000 OA
ATOM      4  O   UNL     1      -0.659  -2.397   1.543  0.00  0.00    +0.000 OA
ENDROOT
BRANCH   1  10
ATOM     10  C   UNL     1      -1.748  -0.203   0.636  0.00  0.00    +0.000 A 
ATOM     14  C   UNL     1      -2.751  -0.946   0.013  0.00  0.00    +0.000 A 
ATOM     15  C   UNL     1      -1.877   1.181   0.755  0.00  0.00    +0.000 A 
ATOM     17  C   UNL     1      -3.883  -0.306  -0.490  0.00  0.00    +0.000 A 
ATOM     18  C   UNL     1      -3.009   1.821   0.252  0.00  0.00    +0.000 A 
ATOM     19  C   UNL     1      -4.012   1.078  -0.370  0.00  0.00    +0.000 A 
BRANCH  19   8
ATOM      8  N   UNL     1      -5.158   1.726  -0.877  0.00  0.00    +0.000 N 
ATOM     22  H   UNL     1      -5.885   1.189  -1.331  0.00  0.00    +0.000 HD
ATOM     23  H   UNL     1      -5.250   2.730  -0.793  0.00  0.00    +0.000 HD
ENDBRANCH  19   8
ENDBRANCH   1  10
BRANCH   1   6
ATOM      5  O   UNL     1       0.088  -3.002  -1.066  0.00  0.00    +0.000 OA
ATOM      6  N   UNL     1       0.743  -0.972  -0.092  0.00  0.00    +0.000 N 
ATOM     13  C   UNL     1       0.813  -2.009  -1.096  0.00  0.00    +0.000 C 
ATOM     21  C   UNL     1       1.805  -1.828  -2.217  0.00  0.00    +0.000 C 
BRANCH   6   9
ATOM      2  O   UNL     1       1.316   1.304  -0.910  0.00  0.00    +0.000 OA
ATOM      7  N   UNL     1       2.386   2.188  -0.845  0.00  0.00    +0.000 NA
ATOM      9  C   UNL     1       1.647   0.194  -0.234  0.00  0.00    +0.000 A 
ATOM     11  C   UNL     1       2.891   0.278   0.289  0.00  0.00    +0.000 A 
ATOM     12  C   UNL     1       3.315   1.553  -0.124  0.00  0.00    +0.000 A 
ATOM     16  C   UNL     1       3.633  -0.709   1.092  0.00  0.00    +0.000 C 
ATOM     20  C   UNL     1       4.603   2.213   0.145  0.00  0.00    +0.000 C 
ENDBRANCH   6   9
ENDBRANCH   1   6
TORSDOF 4
ENDMDL
MODEL       19
REMARK  Name = 5344
REMARK  6 active torsions:
REMARK  status: ('A' for Active; 'I' for Inactive)
REMARK    1  A    between atoms: S_1  and  N_5
REMARK    2  A    between atoms: S_1  and  C_8
REMARK    3  A    between atoms: N_5  and  C_9
REMARK    4  A    between atoms: N_7  and  C_17
REMARK    5  A    between atoms: C_10  and  C_14
REMARK    6  A    between atoms: C_11  and  C_18
REMARK                            x       y       z     vdW  Elec       q    Type
REMARK                         _______ _______ _______ _____ _____    ______ ____
ROOT
ATOM      1  S   UNL     1       0.322   1.132  -0.360  0.00  0.00    +0.000 S 
ATOM      3  O   UNL     1       0.293   1.722  -1.694  0.00  0.00    +0.000 OA
ATOM      4  O   UNL     1      -0.002   1.972   0.786  0.00  0.00    +0.000 OA
ENDROOT
BRANCH   1   8
ATOM      8  C   UNL     1       1.907   0.442  -0.117  0.00  0.00    +0.000 A 
ATOM     12  C   UNL     1       2.681   0.068  -1.216  0.00  0.00    +0.000 A 
ATOM     13  C   UNL     1       2.400   0.264   1.175  0.00  0.00    +0.000 A 
ATOM     15  C   UNL     1       3.947  -0.484  -1.022  0.00  0.00    +0.000 A 
ATOM     16  C   UNL     1       3.667  -0.287   1.369  0.00  0.00    +0.000 A 
ATOM     17  C   UNL     1       4.440  -0.661   0.270  0.00  0.00    +0.000 A 
BRANCH  17   7
ATOM      7  N   UNL     1       5.721  -1.218   0.467  0.00  0.00    +0.000 N 
ATOM     20  H   UNL     1       6.282  -1.491  -0.330  0.00  0.00    +0.000 HD
ATOM     21  H   UNL     1       6.078  -1.349   1.404  0.00  0.00    +0.000 HD
ENDBRANCH  17   7
ENDBRANCH   1   8
BRANCH   1   5
ATOM      5  N   UNL     1      -0.701  -0.254  -0.366  0.00  0.00    +0.000 N 
ATOM     19  H   UNL     1      -0.319  -1.206  -0.352  0.00  0.00    +0.000 HD
BRANCH   5   9
ATOM      2  O   UNL     1      -2.649   1.101   0.372  0.00  0.00    +0.000 OA
ATOM      6  N   UNL     1      -4.014   0.930   0.568  0.00  0.00    +0.000 NA
ATOM      9  C   UNL     1      -2.095  -0.068  -0.064  0.00  0.00    +0.000 A 
ATOM     10  C   UNL     1      -3.088  -1.019  -0.160  0.00  0.00    +0.000 A 
ATOM     11  C   UNL     1      -4.253  -0.344   0.243  0.00  0.00    +0.000 A 
ATOM     14  C   UNL     1      -2.954  -2.422  -0.587  0.00  0.00    +0.000 C 
ATOM     18  C   UNL     1      -5.623  -0.874   0.338  0.00  0.00    +0.000 C 
ENDBRANCH   5   9
ENDBRANCH   1   5
TORSDOF 4
ENDMDL
MODEL       20
REMARK  Name = 5329
REMARK  4 active torsions:
REMARK  status: ('A' for Active; 'I' for Inactive)
REMARK    1  A    between atoms: S_1  and  N_5
REMARK    2  A    between atoms: S_1  and  C_8
REMARK    3  A    between atoms: N_7  and  C_12
REMARK    4  A    between atoms: C_16  and  C_17
REMARK                            x       y       z     vdW  Elec       q    Type
REMARK                         _______ _______ _______ _____ _____    ______ ____
ROOT
ATOM      1  S   UNL     1       0.265  -2.203  -0.085  0.00  0.00    +0.000 S 
ATOM      3  O   UNL     1       0.946  -3.203   0.729  0.00  0.00    +0.000 OA
ATOM      4  O   UNL     1      -0.056  -2.525  -1.470  0.00  0.00    +0.000 OA
ENDROOT
BRANCH   1   5
ATOM      2  O   UNL     1      -2.642   0.966  -0.979  0.00  0.00    +0.000 OA
ATOM      5  N   UNL     1      -1.169  -1.727   0.744  0.00  0.00    +0.000 N 
ATOM      6  N   UNL     1      -1.928  -0.227  -0.978  0.00  0.00    +0.000 NA
ATOM     11  C   UNL     1      -1.845  -0.538   0.299  0.00  0.00    +0.000 A 
ATOM     15  C   UNL     1      -2.454   0.361   1.159  0.00  0.00    +0.000 A 
ATOM     16  C   UNL     1      -2.949   1.305   0.299  0.00  0.00    +0.000 A 
ATOM     17  C   UNL     1      -3.709   2.548   0.483  0.00  0.00    +0.000 C 
ATOM     18  H   UNL     1      -1.208  -1.919   1.753  0.00  0.00    +0.000 HD
ENDBRANCH   1   5
BRANCH   1   8
ATOM      8  C   UNL     1       1.229  -0.748  -0.057  0.00  0.00    +0.000 A 
ATOM      9  C   UNL     1       2.105  -0.511   1.002  0.00  0.00    +0.000 A 
ATOM     10  C   UNL     1       1.123   0.179  -1.095  0.00  0.00    +0.000 A 
ATOM     12  C   UNL     1       2.769   1.578  -0.013  0.00  0.00    +0.000 A 
ATOM     13  C   UNL     1       2.875   0.651   1.024  0.00  0.00    +0.000 A 
ATOM     14  C   UNL     1       1.893   1.341  -1.072  0.00  0.00    +0.000 A 
BRANCH  12   7
ATOM      7  N   UNL     1       3.549   2.753   0.009  0.00  0.00    +0.000 N 
ATOM     19  H   UNL     1       4.183   2.926   0.777  0.00  0.00    +0.000 HD
ATOM     20  H   UNL     1       3.471   3.426  -0.742  0.00  0.00    +0.000 HD
ENDBRANCH  12   7
ENDBRANCH   1   8
TORSDOF 3
ENDMDL
