MODEL 1
REMARK VINA RESULT:      -8.6      0.000      0.000
REMARK  Name = 678193
REMARK  9 active torsions:
REMARK  status: ('A' for Active; 'I' for Inactive)
REMARK    1  A    between atoms: S_1  and  N_6
REMARK    2  A    between atoms: S_1  and  C_9
REMARK    3  A    between atoms: N_6  and  C_12
REMARK    4  A    between atoms: N_7  and  C_11
REMARK    5  A    between atoms: C_10  and  C_16
REMARK    6  A    between atoms: C_10  and  C_19
REMARK    7  A    between atoms: C_10  and  C_20
REMARK    8  A    between atoms: C_15  and  C_22
REMARK    9  A    between atoms: C_21  and  C_23
REMARK                            x       y       z     vdW  Elec       q    Type
REMARK                         _______ _______ _______ _____ _____    ______ ____
ROOT
ATOM      9  C   UNL     1      27.892  -1.035   8.951  0.00  0.00    +0.000 A 
ATOM     11  C   UNL     1      26.219  -2.992   7.931  0.00  0.00    +0.000 A 
ATOM     13  C   UNL     1      27.959  -2.337   9.447  0.00  0.00    +0.000 A 
ATOM     14  C   UNL     1      26.983  -0.719   7.942  0.00  0.00    +0.000 A 
ATOM     17  C   UNL     1      27.117  -3.323   8.932  0.00  0.00    +0.000 A 
ATOM     18  C   UNL     1      26.140  -1.704   7.428  0.00  0.00    +0.000 A 
ENDROOT
BRANCH  11   7
ATOM      5  O   UNL     1      23.701  -4.169   9.054  0.00  0.00    +0.000 OA
ATOM      7  N   UNL     1      25.365  -3.993   7.410  0.00  0.00    +0.000 N 
ATOM     16  C   UNL     1      24.203  -4.503   7.985  0.00  0.00    +0.000 C 
ATOM     25  H   UNL     1      25.646  -4.369   6.508  0.00  0.00    +0.000 HD
BRANCH  16  10
ATOM     10  C   UNL     1      23.566  -5.579   7.101  0.00  0.00    +0.000 C 
ATOM     19  C   UNL     1      23.825  -6.977   7.658  0.00  0.00    +0.000 C 
ATOM     20  C   UNL     1      22.065  -5.328   6.970  0.00  0.00    +0.000 C 
ENDBRANCH  16  10
ENDBRANCH  11   7
BRANCH   9   1
ATOM      1  S   UNL     1      28.946   0.199   9.596  0.00  0.00    +0.000 S 
ATOM      3  O   UNL     1      29.809  -0.428  10.589  0.00  0.00    +0.000 OA
ATOM      4  O   UNL     1      28.136   1.345   9.991  0.00  0.00    +0.000 OA
BRANCH   1   6
ATOM      6  N   UNL     1      29.916   0.620   8.235  0.00  0.00    +0.000 N 
ATOM     24  H   UNL     1      29.598   0.453   7.273  0.00  0.00    +0.000 HD
BRANCH   6  12
ATOM      2  O   UNL     1      30.953   2.867   8.464  0.00  0.00    +0.000 OA
ATOM      8  N   UNL     1      32.213   3.406   8.691  0.00  0.00    +0.000 NA
ATOM     12  C   UNL     1      31.031   1.504   8.447  0.00  0.00    +0.000 A 
ATOM     15  C   UNL     1      32.340   1.132   8.662  0.00  0.00    +0.000 A 
ATOM     21  C   UNL     1      33.025   2.351   8.807  0.00  0.00    +0.000 A 
ATOM     22  C   UNL     1      32.891  -0.232   8.726  0.00  0.00    +0.000 C 
ATOM     23  C   UNL     1      34.461   2.561   9.057  0.00  0.00    +0.000 C 
ENDBRANCH   6  12
ENDBRANCH   1   6
ENDBRANCH   9   1
TORSDOF 5
ENDMDL
MODEL 2
REMARK VINA RESULT:      -8.3      2.180      2.614
REMARK  Name = 678193
REMARK  9 active torsions:
REMARK  status: ('A' for Active; 'I' for Inactive)
REMARK    1  A    between atoms: S_1  and  N_6
REMARK    2  A    between atoms: S_1  and  C_9
REMARK    3  A    between atoms: N_6  and  C_12
REMARK    4  A    between atoms: N_7  and  C_11
REMARK    5  A    between atoms: C_10  and  C_16
REMARK    6  A    between atoms: C_10  and  C_19
REMARK    7  A    between atoms: C_10  and  C_20
REMARK    8  A    between atoms: C_15  and  C_22
REMARK    9  A    between atoms: C_21  and  C_23
REMARK                            x       y       z     vdW  Elec       q    Type
REMARK                         _______ _______ _______ _____ _____    ______ ____
ROOT
ATOM      9  C   UNL     1      27.755  -0.924   8.831  0.00  0.00    +0.000 A 
ATOM     11  C   UNL     1      25.949  -2.839   7.970  0.00  0.00    +0.000 A 
ATOM     13  C   UNL     1      27.362  -1.949   9.692  0.00  0.00    +0.000 A 
ATOM     14  C   UNL     1      27.236  -0.863   7.537  0.00  0.00    +0.000 A 
ATOM     17  C   UNL     1      26.453  -2.914   9.258  0.00  0.00    +0.000 A 
ATOM     18  C   UNL     1      26.327  -1.828   7.104  0.00  0.00    +0.000 A 
ENDROOT
BRANCH  11   7
ATOM      5  O   UNL     1      23.128  -3.372   8.837  0.00  0.00    +0.000 OA
ATOM      7  N   UNL     1      25.026  -3.819   7.531  0.00  0.00    +0.000 N 
ATOM     16  C   UNL     1      23.722  -4.019   7.978  0.00  0.00    +0.000 C 
ATOM     25  H   UNL     1      25.372  -4.437   6.802  0.00  0.00    +0.000 HD
BRANCH  16  10
ATOM     10  C   UNL     1      23.053  -5.187   7.248  0.00  0.00    +0.000 C 
ATOM     19  C   UNL     1      22.766  -6.344   8.203  0.00  0.00    +0.000 C 
ATOM     20  C   UNL     1      21.762  -4.717   6.580  0.00  0.00    +0.000 C 
ENDBRANCH  16  10
ENDBRANCH  11   7
BRANCH   9   1
ATOM      1  S   UNL     1      28.892   0.285   9.374  0.00  0.00    +0.000 S 
ATOM      3  O   UNL     1      28.149   1.285  10.131  0.00  0.00    +0.000 OA
ATOM      4  O   UNL     1      29.693   0.717   8.236  0.00  0.00    +0.000 OA
BRANCH   1   6
ATOM      6  N   UNL     1      29.883  -0.593  10.478  0.00  0.00    +0.000 N 
ATOM     24  H   UNL     1      29.505  -0.982  11.349  0.00  0.00    +0.000 HD
BRANCH   6  12
ATOM      2  O   UNL     1      32.229  -0.252   9.732  0.00  0.00    +0.000 OA
ATOM      8  N   UNL     1      33.303  -1.025   9.309  0.00  0.00    +0.000 NA
ATOM     12  C   UNL     1      31.164  -1.057  10.015  0.00  0.00    +0.000 A 
ATOM     15  C   UNL     1      31.523  -2.366   9.781  0.00  0.00    +0.000 A 
ATOM     21  C   UNL     1      32.858  -2.285   9.347  0.00  0.00    +0.000 A 
ATOM     22  C   UNL     1      30.696  -3.573   9.949  0.00  0.00    +0.000 C 
ATOM     23  C   UNL     1      33.753  -3.385   8.954  0.00  0.00    +0.000 C 
ENDBRANCH   6  12
ENDBRANCH   1   6
ENDBRANCH   9   1
TORSDOF 5
ENDMDL
MODEL 3
REMARK VINA RESULT:      -8.1      2.604      3.359
REMARK  Name = 678193
REMARK  9 active torsions:
REMARK  status: ('A' for Active; 'I' for Inactive)
REMARK    1  A    between atoms: S_1  and  N_6
REMARK    2  A    between atoms: S_1  and  C_9
REMARK    3  A    between atoms: N_6  and  C_12
REMARK    4  A    between atoms: N_7  and  C_11
REMARK    5  A    between atoms: C_10  and  C_16
REMARK    6  A    between atoms: C_10  and  C_19
REMARK    7  A    between atoms: C_10  and  C_20
REMARK    8  A    between atoms: C_15  and  C_22
REMARK    9  A    between atoms: C_21  and  C_23
REMARK                            x       y       z     vdW  Elec       q    Type
REMARK                         _______ _______ _______ _____ _____    ______ ____
ROOT
ATOM      9  C   UNL     1      27.941  -1.284   8.729  0.00  0.00    +0.000 A 
ATOM     11  C   UNL     1      25.978  -3.035   7.865  0.00  0.00    +0.000 A 
ATOM     13  C   UNL     1      27.845  -2.556   9.292  0.00  0.00    +0.000 A 
ATOM     14  C   UNL     1      27.048  -0.893   7.731  0.00  0.00    +0.000 A 
ATOM     17  C   UNL     1      26.857  -3.439   8.856  0.00  0.00    +0.000 A 
ATOM     18  C   UNL     1      26.059  -1.776   7.296  0.00  0.00    +0.000 A 
ENDROOT
BRANCH  11   7
ATOM      5  O   UNL     1      23.363  -3.789   9.123  0.00  0.00    +0.000 OA
ATOM      7  N   UNL     1      24.975  -3.932   7.424  0.00  0.00    +0.000 N 
ATOM     16  C   UNL     1      23.775  -4.244   8.059  0.00  0.00    +0.000 C 
ATOM     25  H   UNL     1      25.168  -4.388   6.536  0.00  0.00    +0.000 HD
BRANCH  16  10
ATOM     10  C   UNL     1      22.964  -5.263   7.254  0.00  0.00    +0.000 C 
ATOM     19  C   UNL     1      22.504  -6.423   8.134  0.00  0.00    +0.000 C 
ATOM     20  C   UNL     1      21.762  -4.580   6.603  0.00  0.00    +0.000 C 
ENDBRANCH  16  10
ENDBRANCH  11   7
BRANCH   9   1
ATOM      1  S   UNL     1      29.178  -0.178   9.274  0.00  0.00    +0.000 S 
ATOM      3  O   UNL     1      28.682   0.485  10.475  0.00  0.00    +0.000 OA
ATOM      4  O   UNL     1      29.605   0.639   8.146  0.00  0.00    +0.000 OA
BRANCH   1   6
ATOM      6  N   UNL     1      30.457  -1.236   9.738  0.00  0.00    +0.000 N 
ATOM     24  H   UNL     1      31.237  -1.448   9.105  0.00  0.00    +0.000 HD
BRANCH   6  12
ATOM      2  O   UNL     1      29.751  -1.138  12.118  0.00  0.00    +0.000 OA
ATOM      8  N   UNL     1      30.175  -1.634  13.344  0.00  0.00    +0.000 NA
ATOM     12  C   UNL     1      30.594  -1.562  11.132  0.00  0.00    +0.000 A 
ATOM     15  C   UNL     1      31.581  -2.339  11.697  0.00  0.00    +0.000 A 
ATOM     21  C   UNL     1      31.270  -2.349  13.068  0.00  0.00    +0.000 A 
ATOM     22  C   UNL     1      32.704  -3.007  11.017  0.00  0.00    +0.000 C 
ATOM     23  C   UNL     1      31.991  -3.028  14.158  0.00  0.00    +0.000 C 
ENDBRANCH   6  12
ENDBRANCH   1   6
ENDBRANCH   9   1
TORSDOF 5
ENDMDL
MODEL 4
REMARK VINA RESULT:      -7.9      3.183      8.524
REMARK  Name = 678193
REMARK  9 active torsions:
REMARK  status: ('A' for Active; 'I' for Inactive)
REMARK    1  A    between atoms: S_1  and  N_6
REMARK    2  A    between atoms: S_1  and  C_9
REMARK    3  A    between atoms: N_6  and  C_12
REMARK    4  A    between atoms: N_7  and  C_11
REMARK    5  A    between atoms: C_10  and  C_16
REMARK    6  A    between atoms: C_10  and  C_19
REMARK    7  A    between atoms: C_10  and  C_20
REMARK    8  A    between atoms: C_15  and  C_22
REMARK    9  A    between atoms: C_21  and  C_23
REMARK                            x       y       z     vdW  Elec       q    Type
REMARK                         _______ _______ _______ _____ _____    ______ ____
ROOT
ATOM      9  C   UNL     1      27.841  -1.700   8.597  0.00  0.00    +0.000 A 
ATOM     11  C   UNL     1      29.974  -1.660  10.363  0.00  0.00    +0.000 A 
ATOM     13  C   UNL     1      28.508  -0.503   8.858  0.00  0.00    +0.000 A 
ATOM     14  C   UNL     1      28.248  -2.876   9.226  0.00  0.00    +0.000 A 
ATOM     17  C   UNL     1      29.583  -0.483   9.747  0.00  0.00    +0.000 A 
ATOM     18  C   UNL     1      29.322  -2.856  10.116  0.00  0.00    +0.000 A 
ENDROOT
BRANCH  11   7
ATOM      5  O   UNL     1      30.009  -1.510  13.357  0.00  0.00    +0.000 OA
ATOM      7  N   UNL     1      31.064  -1.638  11.265  0.00  0.00    +0.000 N 
ATOM     16  C   UNL     1      31.016  -1.564  12.655  0.00  0.00    +0.000 C 
ATOM     25  H   UNL     1      31.982  -1.687  10.830  0.00  0.00    +0.000 HD
BRANCH  16  10
ATOM     10  C   UNL     1      32.420  -1.565  13.265  0.00  0.00    +0.000 C 
ATOM     19  C   UNL     1      32.594  -2.718  14.252  0.00  0.00    +0.000 C 
ATOM     20  C   UNL     1      33.472  -1.648  12.160  0.00  0.00    +0.000 C 
ENDBRANCH  16  10
ENDBRANCH  11   7
BRANCH   9   1
ATOM      1  S   UNL     1      26.495  -1.725   7.485  0.00  0.00    +0.000 S 
ATOM      3  O   UNL     1      26.867  -2.571   6.357  0.00  0.00    +0.000 OA
ATOM      4  O   UNL     1      26.077  -0.353   7.226  0.00  0.00    +0.000 OA
BRANCH   1   6
ATOM      6  N   UNL     1      25.272  -2.542   8.384  0.00  0.00    +0.000 N 
ATOM     24  H   UNL     1      24.598  -2.030   8.965  0.00  0.00    +0.000 HD
BRANCH   6  12
ATOM      2  O   UNL     1      25.661  -4.640   7.113  0.00  0.00    +0.000 OA
ATOM      8  N   UNL     1      25.143  -5.928   7.058  0.00  0.00    +0.000 NA
ATOM     12  C   UNL     1      24.998  -3.916   8.060  0.00  0.00    +0.000 A 
ATOM     15  C   UNL     1      24.038  -4.716   8.638  0.00  0.00    +0.000 A 
ATOM     21  C   UNL     1      24.174  -5.950   7.979  0.00  0.00    +0.000 A 
ATOM     22  C   UNL     1      23.087  -4.358   9.705  0.00  0.00    +0.000 C 
ATOM     23  C   UNL     1      23.400  -7.184   8.192  0.00  0.00    +0.000 C 
ENDBRANCH   6  12
ENDBRANCH   1   6
ENDBRANCH   9   1
TORSDOF 5
ENDMDL
MODEL 5
REMARK VINA RESULT:      -7.1      5.101      6.211
REMARK  Name = 678193
REMARK  9 active torsions:
REMARK  status: ('A' for Active; 'I' for Inactive)
REMARK    1  A    between atoms: S_1  and  N_6
REMARK    2  A    between atoms: S_1  and  C_9
REMARK    3  A    between atoms: N_6  and  C_12
REMARK    4  A    between atoms: N_7  and  C_11
REMARK    5  A    between atoms: C_10  and  C_16
REMARK    6  A    between atoms: C_10  and  C_19
REMARK    7  A    between atoms: C_10  and  C_20
REMARK    8  A    between atoms: C_15  and  C_22
REMARK    9  A    between atoms: C_21  and  C_23
REMARK                            x       y       z     vdW  Elec       q    Type
REMARK                         _______ _______ _______ _____ _____    ______ ____
ROOT
ATOM      9  C   UNL     1      31.535  -2.504  12.267  0.00  0.00    +0.000 A 
ATOM     11  C   UNL     1      29.541  -2.509  10.345  0.00  0.00    +0.000 A 
ATOM     13  C   UNL     1      31.631  -3.355  11.166  0.00  0.00    +0.000 A 
ATOM     14  C   UNL     1      30.435  -1.657  12.401  0.00  0.00    +0.000 A 
ATOM     17  C   UNL     1      30.627  -3.357  10.197  0.00  0.00    +0.000 A 
ATOM     18  C   UNL     1      29.431  -1.659  11.433  0.00  0.00    +0.000 A 
ENDROOT
BRANCH  11   7
ATOM      5  O   UNL     1      28.645  -0.344   8.476  0.00  0.00    +0.000 OA
ATOM      7  N   UNL     1      28.523  -2.513   9.362  0.00  0.00    +0.000 N 
ATOM     16  C   UNL     1      28.150  -1.466   8.522  0.00  0.00    +0.000 C 
ATOM     25  H   UNL     1      28.019  -3.391   9.270  0.00  0.00    +0.000 HD
BRANCH  16  10
ATOM     10  C   UNL     1      26.999  -1.874   7.597  0.00  0.00    +0.000 C 
ATOM     19  C   UNL     1      26.048  -2.846   8.293  0.00  0.00    +0.000 C 
ATOM     20  C   UNL     1      26.242  -0.635   7.125  0.00  0.00    +0.000 C 
ENDBRANCH  16  10
ENDBRANCH  11   7
BRANCH   9   1
ATOM      1  S   UNL     1      32.791  -2.502  13.480  0.00  0.00    +0.000 S 
ATOM      3  O   UNL     1      33.856  -3.383  13.018  0.00  0.00    +0.000 OA
ATOM      4  O   UNL     1      32.185  -2.754  14.781  0.00  0.00    +0.000 OA
BRANCH   1   6
ATOM      6  N   UNL     1      33.376  -0.881  13.420  0.00  0.00    +0.000 N 
ATOM     24  H   UNL     1      33.157  -0.258  12.634  0.00  0.00    +0.000 HD
BRANCH   6  12
ATOM      2  O   UNL     1      33.187   0.480  15.490  0.00  0.00    +0.000 OA
ATOM      8  N   UNL     1      33.996   0.865  16.553  0.00  0.00    +0.000 NA
ATOM     12  C   UNL     1      33.898  -0.305  14.631  0.00  0.00    +0.000 A 
ATOM     15  C   UNL     1      35.180  -0.446  15.115  0.00  0.00    +0.000 A 
ATOM     21  C   UNL     1      35.182   0.300  16.307  0.00  0.00    +0.000 A 
ATOM     22  C   UNL     1      36.292  -1.205  14.519  0.00  0.00    +0.000 C 
ATOM     23  C   UNL     1      36.295   0.505  17.248  0.00  0.00    +0.000 C 
ENDBRANCH   6  12
ENDBRANCH   1   6
ENDBRANCH   9   1
TORSDOF 5
ENDMDL
MODEL 6
REMARK VINA RESULT:      -6.9      5.842      7.626
REMARK  Name = 678193
REMARK  9 active torsions:
REMARK  status: ('A' for Active; 'I' for Inactive)
REMARK    1  A    between atoms: S_1  and  N_6
REMARK    2  A    between atoms: S_1  and  C_9
REMARK    3  A    between atoms: N_6  and  C_12
REMARK    4  A    between atoms: N_7  and  C_11
REMARK    5  A    between atoms: C_10  and  C_16
REMARK    6  A    between atoms: C_10  and  C_19
REMARK    7  A    between atoms: C_10  and  C_20
REMARK    8  A    between atoms: C_15  and  C_22
REMARK    9  A    between atoms: C_21  and  C_23
REMARK                            x       y       z     vdW  Elec       q    Type
REMARK                         _______ _______ _______ _____ _____    ______ ____
ROOT
ATOM      9  C   UNL     1      31.915  -3.549  11.594  0.00  0.00    +0.000 A 
ATOM     11  C   UNL     1      32.443  -6.097  12.543  0.00  0.00    +0.000 A 
ATOM     13  C   UNL     1      31.756  -3.835  12.950  0.00  0.00    +0.000 A 
ATOM     14  C   UNL     1      32.339  -4.547  10.716  0.00  0.00    +0.000 A 
ATOM     17  C   UNL     1      32.023  -5.118  13.428  0.00  0.00    +0.000 A 
ATOM     18  C   UNL     1      32.605  -5.830  11.194  0.00  0.00    +0.000 A 
ENDROOT
BRANCH  11   7
ATOM      5  O   UNL     1      31.984  -8.774  11.273  0.00  0.00    +0.000 OA
ATOM      7  N   UNL     1      32.713  -7.399  13.029  0.00  0.00    +0.000 N 
ATOM     16  C   UNL     1      32.472  -8.612  12.388  0.00  0.00    +0.000 C 
ATOM     25  H   UNL     1      33.135  -7.432  13.953  0.00  0.00    +0.000 HD
BRANCH  16  10
ATOM     10  C   UNL     1      32.907  -9.798  13.254  0.00  0.00    +0.000 C 
ATOM     19  C   UNL     1      33.656  -9.328  14.500  0.00  0.00    +0.000 C 
ATOM     20  C   UNL     1      31.691 -10.633  13.648  0.00  0.00    +0.000 C 
ENDBRANCH  16  10
ENDBRANCH  11   7
BRANCH   9   1
ATOM      1  S   UNL     1      31.581  -1.943  10.995  0.00  0.00    +0.000 S 
ATOM      3  O   UNL     1      31.665  -1.986   9.540  0.00  0.00    +0.000 OA
ATOM      4  O   UNL     1      32.414  -0.992  11.720  0.00  0.00    +0.000 OA
BRANCH   1   6
ATOM      6  N   UNL     1      29.929  -1.711  11.429  0.00  0.00    +0.000 N 
ATOM     24  H   UNL     1      29.606  -1.819  12.397  0.00  0.00    +0.000 HD
BRANCH   6  12
ATOM      2  O   UNL     1      28.909   0.304  10.393  0.00  0.00    +0.000 OA
ATOM      8  N   UNL     1      28.007   0.601   9.379  0.00  0.00    +0.000 NA
ATOM     12  C   UNL     1      29.069  -1.048  10.485  0.00  0.00    +0.000 A 
ATOM     15  C   UNL     1      28.276  -1.655   9.536  0.00  0.00    +0.000 A 
ATOM     21  C   UNL     1      27.643  -0.585   8.881  0.00  0.00    +0.000 A 
ATOM     22  C   UNL     1      28.129  -3.096   9.270  0.00  0.00    +0.000 C 
ATOM     23  C   UNL     1      26.677  -0.643   7.771  0.00  0.00    +0.000 C 
ENDBRANCH   6  12
ENDBRANCH   1   6
ENDBRANCH   9   1
TORSDOF 5
ENDMDL
MODEL 7
REMARK VINA RESULT:      -6.8     18.604     20.365
REMARK  Name = 678193
REMARK  9 active torsions:
REMARK  status: ('A' for Active; 'I' for Inactive)
REMARK    1  A    between atoms: S_1  and  N_6
REMARK    2  A    between atoms: S_1  and  C_9
REMARK    3  A    between atoms: N_6  and  C_12
REMARK    4  A    between atoms: N_7  and  C_11
REMARK    5  A    between atoms: C_10  and  C_16
REMARK    6  A    between atoms: C_10  and  C_19
REMARK    7  A    between atoms: C_10  and  C_20
REMARK    8  A    between atoms: C_15  and  C_22
REMARK    9  A    between atoms: C_21  and  C_23
REMARK                            x       y       z     vdW  Elec       q    Type
REMARK                         _______ _______ _______ _____ _____    ______ ____
ROOT
ATOM      9  C   UNL     1      19.696 -10.565  22.815  0.00  0.00    +0.000 A 
ATOM     11  C   UNL     1      19.532 -13.275  22.269  0.00  0.00    +0.000 A 
ATOM     13  C   UNL     1      19.113 -11.429  23.742  0.00  0.00    +0.000 A 
ATOM     14  C   UNL     1      20.195 -11.067  21.612  0.00  0.00    +0.000 A 
ATOM     17  C   UNL     1      19.031 -12.794  23.468  0.00  0.00    +0.000 A 
ATOM     18  C   UNL     1      20.113 -12.431  21.338  0.00  0.00    +0.000 A 
ENDROOT
BRANCH  11   7
ATOM      5  O   UNL     1      17.173 -14.958  21.498  0.00  0.00    +0.000 OA
ATOM      7  N   UNL     1      19.448 -14.661  21.992  0.00  0.00    +0.000 N 
ATOM     16  C   UNL     1      18.314 -15.389  21.640  0.00  0.00    +0.000 C 
ATOM     25  H   UNL     1      20.328 -15.165  22.059  0.00  0.00    +0.000 HD
BRANCH  16  10
ATOM     10  C   UNL     1      18.645 -16.869  21.424  0.00  0.00    +0.000 C 
ATOM     19  C   UNL     1      17.929 -17.422  20.193  0.00  0.00    +0.000 C 
ATOM     20  C   UNL     1      20.155 -17.054  21.287  0.00  0.00    +0.000 C 
ENDBRANCH  16  10
ENDBRANCH  11   7
BRANCH   9   1
ATOM      1  S   UNL     1      19.798  -8.856  23.157  0.00  0.00    +0.000 S 
ATOM      3  O   UNL     1      21.167  -8.431  22.889  0.00  0.00    +0.000 OA
ATOM      4  O   UNL     1      19.231  -8.610  24.477  0.00  0.00    +0.000 OA
BRANCH   1   6
ATOM      6  N   UNL     1      18.778  -8.164  21.953  0.00  0.00    +0.000 N 
ATOM     24  H   UNL     1      19.096  -8.037  20.985  0.00  0.00    +0.000 HD
BRANCH   6  12
ATOM      2  O   UNL     1      16.778  -7.033  22.898  0.00  0.00    +0.000 OA
ATOM      8  N   UNL     1      15.410  -7.260  22.996  0.00  0.00    +0.000 NA
ATOM     12  C   UNL     1      17.370  -8.067  22.233  0.00  0.00    +0.000 A 
ATOM     15  C   UNL     1      16.403  -8.984  21.886  0.00  0.00    +0.000 A 
ATOM     21  C   UNL     1      15.209  -8.431  22.383  0.00  0.00    +0.000 A 
ATOM     22  C   UNL     1      16.580 -10.252  21.158  0.00  0.00    +0.000 C 
ATOM     23  C   UNL     1      13.848  -8.985  22.299  0.00  0.00    +0.000 C 
ENDBRANCH   6  12
ENDBRANCH   1   6
ENDBRANCH   9   1
TORSDOF 5
ENDMDL
MODEL 8
REMARK VINA RESULT:      -6.8      5.250      9.748
REMARK  Name = 678193
REMARK  9 active torsions:
REMARK  status: ('A' for Active; 'I' for Inactive)
REMARK    1  A    between atoms: S_1  and  N_6
REMARK    2  A    between atoms: S_1  and  C_9
REMARK    3  A    between atoms: N_6  and  C_12
REMARK    4  A    between atoms: N_7  and  C_11
REMARK    5  A    between atoms: C_10  and  C_16
REMARK    6  A    between atoms: C_10  and  C_19
REMARK    7  A    between atoms: C_10  and  C_20
REMARK    8  A    between atoms: C_15  and  C_22
REMARK    9  A    between atoms: C_21  and  C_23
REMARK                            x       y       z     vdW  Elec       q    Type
REMARK                         _______ _______ _______ _____ _____    ______ ____
ROOT
ATOM      9  C   UNL     1      32.308  -1.891  12.157  0.00  0.00    +0.000 A 
ATOM     11  C   UNL     1      34.026  -1.252  14.233  0.00  0.00    +0.000 A 
ATOM     13  C   UNL     1      33.276  -0.903  11.981  0.00  0.00    +0.000 A 
ATOM     14  C   UNL     1      32.205  -2.557  13.379  0.00  0.00    +0.000 A 
ATOM     17  C   UNL     1      34.142  -0.581  13.026  0.00  0.00    +0.000 A 
ATOM     18  C   UNL     1      33.070  -2.235  14.424  0.00  0.00    +0.000 A 
ENDROOT
BRANCH  11   7
ATOM      5  O   UNL     1      33.810   0.862  16.348  0.00  0.00    +0.000 OA
ATOM      7  N   UNL     1      34.906  -0.924  15.293  0.00  0.00    +0.000 N 
ATOM     16  C   UNL     1      34.750   0.078  16.247  0.00  0.00    +0.000 C 
ATOM     25  H   UNL     1      35.741  -1.501  15.350  0.00  0.00    +0.000 HD
BRANCH  16  10
ATOM     10  C   UNL     1      35.927   0.108  17.225  0.00  0.00    +0.000 C 
ATOM     19  C   UNL     1      36.175   1.520  17.750  0.00  0.00    +0.000 C 
ATOM     20  C   UNL     1      35.670  -0.853  18.385  0.00  0.00    +0.000 C 
ENDBRANCH  16  10
ENDBRANCH  11   7
BRANCH   9   1
ATOM      1  S   UNL     1      31.223  -2.294  10.849  0.00  0.00    +0.000 S 
ATOM      3  O   UNL     1      31.095  -3.745  10.811  0.00  0.00    +0.000 OA
ATOM      4  O   UNL     1      31.660  -1.594   9.648  0.00  0.00    +0.000 OA
BRANCH   1   6
ATOM      6  N   UNL     1      29.721  -1.638  11.384  0.00  0.00    +0.000 N 
ATOM     24  H   UNL     1      29.519  -1.499  12.381  0.00  0.00    +0.000 HD
BRANCH   6  12
ATOM      2  O   UNL     1      28.728   0.366  10.302  0.00  0.00    +0.000 OA
ATOM      8  N   UNL     1      27.850   0.653   9.264  0.00  0.00    +0.000 NA
ATOM     12  C   UNL     1      28.884  -0.985  10.414  0.00  0.00    +0.000 A 
ATOM     15  C   UNL     1      28.112  -1.602   9.454  0.00  0.00    +0.000 A 
ATOM     21  C   UNL     1      27.496  -0.539   8.772  0.00  0.00    +0.000 A 
ATOM     22  C   UNL     1      27.969  -3.046   9.202  0.00  0.00    +0.000 C 
ATOM     23  C   UNL     1      26.556  -0.608   7.641  0.00  0.00    +0.000 C 
ENDBRANCH   6  12
ENDBRANCH   1   6
ENDBRANCH   9   1
TORSDOF 5
ENDMDL
MODEL 9
REMARK VINA RESULT:      -6.7      3.636      5.008
REMARK  Name = 678193
REMARK  9 active torsions:
REMARK  status: ('A' for Active; 'I' for Inactive)
REMARK    1  A    between atoms: S_1  and  N_6
REMARK    2  A    between atoms: S_1  and  C_9
REMARK    3  A    between atoms: N_6  and  C_12
REMARK    4  A    between atoms: N_7  and  C_11
REMARK    5  A    between atoms: C_10  and  C_16
REMARK    6  A    between atoms: C_10  and  C_19
REMARK    7  A    between atoms: C_10  and  C_20
REMARK    8  A    between atoms: C_15  and  C_22
REMARK    9  A    between atoms: C_21  and  C_23
REMARK                            x       y       z     vdW  Elec       q    Type
REMARK                         _______ _______ _______ _____ _____    ______ ____
ROOT
ATOM      9  C   UNL     1      31.474  -2.488  12.197  0.00  0.00    +0.000 A 
ATOM     11  C   UNL     1      29.391  -2.422  10.373  0.00  0.00    +0.000 A 
ATOM     13  C   UNL     1      30.399  -1.622  12.397  0.00  0.00    +0.000 A 
ATOM     14  C   UNL     1      31.500  -3.321  11.078  0.00  0.00    +0.000 A 
ATOM     17  C   UNL     1      29.350  -1.590  11.479  0.00  0.00    +0.000 A 
ATOM     18  C   UNL     1      30.452  -3.287  10.159  0.00  0.00    +0.000 A 
ENDROOT
BRANCH  11   7
ATOM      5  O   UNL     1      27.938  -0.089   9.175  0.00  0.00    +0.000 OA
ATOM      7  N   UNL     1      28.326  -2.388   9.441  0.00  0.00    +0.000 N 
ATOM     16  C   UNL     1      27.687  -1.265   8.922  0.00  0.00    +0.000 C 
ATOM     25  H   UNL     1      28.007  -3.299   9.122  0.00  0.00    +0.000 HD
BRANCH  16  10
ATOM     10  C   UNL     1      26.580  -1.655   7.939  0.00  0.00    +0.000 C 
ATOM     19  C   UNL     1      26.948  -1.266   6.508  0.00  0.00    +0.000 C 
ATOM     20  C   UNL     1      26.305  -3.155   8.027  0.00  0.00    +0.000 C 
ENDBRANCH  16  10
ENDBRANCH  11   7
BRANCH   9   1
ATOM      1  S   UNL     1      32.788  -2.529  13.347  0.00  0.00    +0.000 S 
ATOM      3  O   UNL     1      33.002  -3.920  13.726  0.00  0.00    +0.000 OA
ATOM      4  O   UNL     1      32.525  -1.548  14.392  0.00  0.00    +0.000 OA
BRANCH   1   6
ATOM      6  N   UNL     1      34.136  -2.018  12.402  0.00  0.00    +0.000 N 
ATOM     24  H   UNL     1      34.685  -2.682  11.843  0.00  0.00    +0.000 HD
BRANCH   6  12
ATOM      2  O   UNL     1      34.763   0.298  13.044  0.00  0.00    +0.000 OA
ATOM      8  N   UNL     1      34.776   1.564  12.470  0.00  0.00    +0.000 NA
ATOM     12  C   UNL     1      34.288  -0.611  12.145  0.00  0.00    +0.000 A 
ATOM     15  C   UNL     1      33.983   0.043  10.972  0.00  0.00    +0.000 A 
ATOM     21  C   UNL     1      34.306   1.386  11.232  0.00  0.00    +0.000 A 
ATOM     22  C   UNL     1      33.442  -0.536   9.730  0.00  0.00    +0.000 C 
ATOM     23  C   UNL     1      34.182   2.541  10.328  0.00  0.00    +0.000 C 
ENDBRANCH   6  12
ENDBRANCH   1   6
ENDBRANCH   9   1
TORSDOF 5
ENDMDL
