MODEL 1
REMARK VINA RESULT:      -7.0      0.000      0.000
REMARK  Name = 4596756
REMARK  3 active torsions:
REMARK  status: ('A' for Active; 'I' for Inactive)
REMARK    1  A    between atoms: S_4  and  N_8
REMARK    2  A    between atoms: S_4  and  C_10
REMARK    3  A    between atoms: C_18  and  C_19
REMARK                            x       y       z     vdW  Elec       q    Type
REMARK                         _______ _______ _______ _____ _____    ______ ____
ROOT
ATOM      4  S   UNL     1      28.558  -0.340  10.051  0.00  0.00    +0.000 S 
ATOM      5  O   UNL     1      28.432   1.104  10.189  0.00  0.00    +0.000 OA
ATOM      6  O   UNL     1      27.963  -1.201  11.064  0.00  0.00    +0.000 OA
ENDROOT
BRANCH   4  10
ATOM      1 CL   UNL     1      30.572   1.323   8.145  0.00  0.00    +0.000 Cl
ATOM      2 CL   UNL     1      32.661  -3.408  11.642  0.00  0.00    +0.000 Cl
ATOM      3 CL   UNL     1      34.663  -1.731   9.731  0.00  0.00    +0.000 Cl
ATOM     10  C   UNL     1      30.268  -0.711   9.943  0.00  0.00    +0.000 A 
ATOM     11  C   UNL     1      31.130   0.012   9.120  0.00  0.00    +0.000 A 
ATOM     12  C   UNL     1      30.759  -1.763  10.715  0.00  0.00    +0.000 A 
ATOM     14  C   UNL     1      32.114  -2.093  10.664  0.00  0.00    +0.000 A 
ATOM     15  C   UNL     1      32.485  -0.318   9.068  0.00  0.00    +0.000 A 
ATOM     17  C   UNL     1      32.976  -1.370   9.840  0.00  0.00    +0.000 A 
ENDBRANCH   4  10
BRANCH   4   8
ATOM      7  O   UNL     1      26.750  -4.082   8.629  0.00  0.00    +0.000 OA
ATOM      8  N   UNL     1      27.978  -0.787   8.494  0.00  0.00    +0.000 N 
ATOM      9  N   UNL     1      27.655  -3.109   9.036  0.00  0.00    +0.000 NA
ATOM     13  C   UNL     1      27.286  -2.041   8.360  0.00  0.00    +0.000 A 
ATOM     16  C   UNL     1      26.196  -2.226   7.525  0.00  0.00    +0.000 A 
ATOM     18  C   UNL     1      25.887  -3.545   7.729  0.00  0.00    +0.000 A 
ATOM     19  C   UNL     1      24.857  -4.441   7.191  0.00  0.00    +0.000 C 
ATOM     20  H   UNL     1      27.658  -0.026   7.880  0.00  0.00    +0.000 HD
ENDBRANCH   4   8
TORSDOF 2
ENDMDL
MODEL 2
REMARK VINA RESULT:      -6.6      3.089      4.167
REMARK  Name = 4596756
REMARK  3 active torsions:
REMARK  status: ('A' for Active; 'I' for Inactive)
REMARK    1  A    between atoms: S_4  and  N_8
REMARK    2  A    between atoms: S_4  and  C_10
REMARK    3  A    between atoms: C_18  and  C_19
REMARK                            x       y       z     vdW  Elec       q    Type
REMARK                         _______ _______ _______ _____ _____    ______ ____
ROOT
ATOM      4  S   UNL     1      30.815  -1.938  11.781  0.00  0.00    +0.000 S 
ATOM      5  O   UNL     1      31.545  -1.174  10.779  0.00  0.00    +0.000 OA
ATOM      6  O   UNL     1      30.500  -1.311  13.057  0.00  0.00    +0.000 OA
ENDROOT
BRANCH   4  10
ATOM      1 CL   UNL     1      31.617  -4.009   9.431  0.00  0.00    +0.000 Cl
ATOM      2 CL   UNL     1      33.284  -5.091  15.350  0.00  0.00    +0.000 Cl
ATOM      3 CL   UNL     1      34.082  -7.152  12.985  0.00  0.00    +0.000 Cl
ATOM     10  C   UNL     1      31.726  -3.403  12.093  0.00  0.00    +0.000 A 
ATOM     11  C   UNL     1      32.069  -4.290  11.073  0.00  0.00    +0.000 A 
ATOM     12  C   UNL     1      32.110  -3.667  13.407  0.00  0.00    +0.000 A 
ATOM     14  C   UNL     1      32.839  -4.819  13.702  0.00  0.00    +0.000 A 
ATOM     15  C   UNL     1      32.798  -5.443  11.369  0.00  0.00    +0.000 A 
ATOM     17  C   UNL     1      33.182  -5.707  12.683  0.00  0.00    +0.000 A 
ENDBRANCH   4  10
BRANCH   4   8
ATOM      7  O   UNL     1      27.733   0.101   9.407  0.00  0.00    +0.000 OA
ATOM      8  N   UNL     1      29.374  -2.538  11.057  0.00  0.00    +0.000 N 
ATOM      9  N   UNL     1      28.510  -0.375  10.456  0.00  0.00    +0.000 NA
ATOM     13  C   UNL     1      28.628  -1.660  10.196  0.00  0.00    +0.000 A 
ATOM     16  C   UNL     1      27.984  -2.085   9.046  0.00  0.00    +0.000 A 
ATOM     18  C   UNL     1      27.426  -0.926   8.574  0.00  0.00    +0.000 A 
ATOM     19  C   UNL     1      26.604  -0.599   7.403  0.00  0.00    +0.000 C 
ATOM     20  H   UNL     1      29.358  -3.536  10.808  0.00  0.00    +0.000 HD
ENDBRANCH   4   8
TORSDOF 2
ENDMDL
MODEL 3
REMARK VINA RESULT:      -6.3      3.530      5.470
REMARK  Name = 4596756
REMARK  3 active torsions:
REMARK  status: ('A' for Active; 'I' for Inactive)
REMARK    1  A    between atoms: S_4  and  N_8
REMARK    2  A    between atoms: S_4  and  C_10
REMARK    3  A    between atoms: C_18  and  C_19
REMARK                            x       y       z     vdW  Elec       q    Type
REMARK                         _______ _______ _______ _____ _____    ______ ____
ROOT
ATOM      4  S   UNL     1      30.776  -1.783  11.406  0.00  0.00    +0.000 S 
ATOM      5  O   UNL     1      30.227  -1.403  12.701  0.00  0.00    +0.000 OA
ATOM      6  O   UNL     1      32.039  -1.201  10.975  0.00  0.00    +0.000 OA
ENDROOT
BRANCH   4  10
ATOM      1 CL   UNL     1      31.209   0.470   9.127  0.00  0.00    +0.000 Cl
ATOM      2 CL   UNL     1      25.923  -2.842   9.381  0.00  0.00    +0.000 Cl
ATOM      3 CL   UNL     1      26.374  -0.586   7.106  0.00  0.00    +0.000 Cl
ATOM     10  C   UNL     1      29.560  -1.429  10.194  0.00  0.00    +0.000 A 
ATOM     11  C   UNL     1      29.755  -0.457   9.214  0.00  0.00    +0.000 A 
ATOM     12  C   UNL     1      28.371  -2.156  10.230  0.00  0.00    +0.000 A 
ATOM     14  C   UNL     1      27.375  -1.910   9.284  0.00  0.00    +0.000 A 
ATOM     15  C   UNL     1      28.759  -0.211   8.268  0.00  0.00    +0.000 A 
ATOM     17  C   UNL     1      27.569  -0.937   8.304  0.00  0.00    +0.000 A 
ENDBRANCH   4  10
BRANCH   4   8
ATOM      7  O   UNL     1      32.800  -4.439   8.553  0.00  0.00    +0.000 OA
ATOM      8  N   UNL     1      30.877  -3.500  11.346  0.00  0.00    +0.000 N 
ATOM      9  N   UNL     1      31.890  -3.586   9.166  0.00  0.00    +0.000 NA
ATOM     13  C   UNL     1      31.750  -4.096  10.371  0.00  0.00    +0.000 A 
ATOM     16  C   UNL     1      32.501  -5.235  10.614  0.00  0.00    +0.000 A 
ATOM     18  C   UNL     1      33.156  -5.417   9.425  0.00  0.00    +0.000 A 
ATOM     19  C   UNL     1      34.118  -6.413   8.938  0.00  0.00    +0.000 C 
ATOM     20  H   UNL     1      30.784  -4.004  12.239  0.00  0.00    +0.000 HD
ENDBRANCH   4   8
TORSDOF 2
ENDMDL
MODEL 4
REMARK VINA RESULT:      -6.2      4.258      7.138
REMARK  Name = 4596756
REMARK  3 active torsions:
REMARK  status: ('A' for Active; 'I' for Inactive)
REMARK    1  A    between atoms: S_4  and  N_8
REMARK    2  A    between atoms: S_4  and  C_10
REMARK    3  A    between atoms: C_18  and  C_19
REMARK                            x       y       z     vdW  Elec       q    Type
REMARK                         _______ _______ _______ _____ _____    ______ ____
ROOT
ATOM      4  S   UNL     1      32.834  -1.052   9.979  0.00  0.00    +0.000 S 
ATOM      5  O   UNL     1      33.520  -1.708   8.875  0.00  0.00    +0.000 OA
ATOM      6  O   UNL     1      33.272  -1.320  11.342  0.00  0.00    +0.000 OA
ENDROOT
BRANCH   4  10
ATOM      1 CL   UNL     1      31.739  -4.075  10.328  0.00  0.00    +0.000 Cl
ATOM      2 CL   UNL     1      27.807   0.635   9.169  0.00  0.00    +0.000 Cl
ATOM      3 CL   UNL     1      26.727  -2.395   9.524  0.00  0.00    +0.000 Cl
ATOM     10  C   UNL     1      31.132  -1.453   9.855  0.00  0.00    +0.000 A 
ATOM     11  C   UNL     1      30.668  -2.759  10.007  0.00  0.00    +0.000 A 
ATOM     12  C   UNL     1      30.234  -0.418   9.597  0.00  0.00    +0.000 A 
ATOM     14  C   UNL     1      28.869  -0.689   9.492  0.00  0.00    +0.000 A 
ATOM     15  C   UNL     1      29.303  -3.030   9.903  0.00  0.00    +0.000 A 
ATOM     17  C   UNL     1      28.404  -1.995   9.644  0.00  0.00    +0.000 A 
ENDBRANCH   4  10
BRANCH   4   8
ATOM      7  O   UNL     1      36.093   1.634   8.772  0.00  0.00    +0.000 OA
ATOM      8  N   UNL     1      32.843   0.644   9.688  0.00  0.00    +0.000 N 
ATOM      9  N   UNL     1      35.235   0.825   9.508  0.00  0.00    +0.000 NA
ATOM     13  C   UNL     1      34.037   1.235   9.147  0.00  0.00    +0.000 A 
ATOM     16  C   UNL     1      34.027   2.265   8.221  0.00  0.00    +0.000 A 
ATOM     18  C   UNL     1      35.362   2.488   8.010  0.00  0.00    +0.000 A 
ATOM     19  C   UNL     1      36.114   3.421   7.164  0.00  0.00    +0.000 C 
ATOM     20  H   UNL     1      31.954   1.071   9.396  0.00  0.00    +0.000 HD
ENDBRANCH   4   8
TORSDOF 2
ENDMDL
MODEL 5
REMARK VINA RESULT:      -6.2     12.040     13.435
REMARK  Name = 4596756
REMARK  3 active torsions:
REMARK  status: ('A' for Active; 'I' for Inactive)
REMARK    1  A    between atoms: S_4  and  N_8
REMARK    2  A    between atoms: S_4  and  C_10
REMARK    3  A    between atoms: C_18  and  C_19
REMARK                            x       y       z     vdW  Elec       q    Type
REMARK                         _______ _______ _______ _____ _____    ______ ____
ROOT
ATOM      4  S   UNL     1      30.682 -10.644   2.194  0.00  0.00    +0.000 S 
ATOM      5  O   UNL     1      31.794 -10.743   1.258  0.00  0.00    +0.000 OA
ATOM      6  O   UNL     1      30.911 -10.051   3.504  0.00  0.00    +0.000 OA
ENDROOT
BRANCH   4  10
ATOM      1 CL   UNL     1      32.561 -13.276   2.142  0.00  0.00    +0.000 Cl
ATOM      2 CL   UNL     1      26.406 -13.762   3.073  0.00  0.00    +0.000 Cl
ATOM      3 CL   UNL     1      28.301 -16.385   3.021  0.00  0.00    +0.000 Cl
ATOM     10  C   UNL     1      30.040 -12.259   2.421  0.00  0.00    +0.000 A 
ATOM     11  C   UNL     1      30.857 -13.389   2.398  0.00  0.00    +0.000 A 
ATOM     12  C   UNL     1      28.668 -12.394   2.631  0.00  0.00    +0.000 A 
ATOM     14  C   UNL     1      28.112 -13.660   2.819  0.00  0.00    +0.000 A 
ATOM     15  C   UNL     1      30.301 -14.655   2.586  0.00  0.00    +0.000 A 
ATOM     17  C   UNL     1      28.929 -14.790   2.796  0.00  0.00    +0.000 A 
ENDBRANCH   4  10
BRANCH   4   8
ATOM      7  O   UNL     1      30.674  -7.109  -0.412  0.00  0.00    +0.000 OA
ATOM      8  N   UNL     1      29.385  -9.832   1.407  0.00  0.00    +0.000 N 
ATOM      9  N   UNL     1      30.704  -7.950   0.693  0.00  0.00    +0.000 NA
ATOM     13  C   UNL     1      29.705  -8.780   0.479  0.00  0.00    +0.000 A 
ATOM     16  C   UNL     1      29.002  -8.557  -0.694  0.00  0.00    +0.000 A 
ATOM     18  C   UNL     1      29.656  -7.479  -1.230  0.00  0.00    +0.000 A 
ATOM     19  C   UNL     1      29.478  -6.691  -2.455  0.00  0.00    +0.000 C 
ATOM     20  H   UNL     1      28.550 -10.390   1.187  0.00  0.00    +0.000 HD
ENDBRANCH   4   8
TORSDOF 2
ENDMDL
MODEL 6
REMARK VINA RESULT:      -6.2      3.350      4.454
REMARK  Name = 4596756
REMARK  3 active torsions:
REMARK  status: ('A' for Active; 'I' for Inactive)
REMARK    1  A    between atoms: S_4  and  N_8
REMARK    2  A    between atoms: S_4  and  C_10
REMARK    3  A    between atoms: C_18  and  C_19
REMARK                            x       y       z     vdW  Elec       q    Type
REMARK                         _______ _______ _______ _____ _____    ______ ____
ROOT
ATOM      4  S   UNL     1      31.215  -1.916  12.056  0.00  0.00    +0.000 S 
ATOM      5  O   UNL     1      31.931  -1.034  11.145  0.00  0.00    +0.000 OA
ATOM      6  O   UNL     1      30.705  -1.375  13.309  0.00  0.00    +0.000 OA
ENDROOT
BRANCH   4  10
ATOM      1 CL   UNL     1      33.729  -1.642  14.072  0.00  0.00    +0.000 Cl
ATOM      2 CL   UNL     1      32.436  -7.084  11.299  0.00  0.00    +0.000 Cl
ATOM      3 CL   UNL     1      34.945  -6.794  13.321  0.00  0.00    +0.000 Cl
ATOM     10  C   UNL     1      32.273  -3.264  12.424  0.00  0.00    +0.000 A 
ATOM     11  C   UNL     1      33.354  -3.138  13.296  0.00  0.00    +0.000 A 
ATOM     12  C   UNL     1      32.005  -4.491  11.818  0.00  0.00    +0.000 A 
ATOM     14  C   UNL     1      32.818  -5.593  12.083  0.00  0.00    +0.000 A 
ATOM     15  C   UNL     1      34.168  -4.240  13.561  0.00  0.00    +0.000 A 
ATOM     17  C   UNL     1      33.900  -5.467  12.954  0.00  0.00    +0.000 A 
ENDBRANCH   4  10
BRANCH   4   8
ATOM      7  O   UNL     1      27.839  -0.180   9.847  0.00  0.00    +0.000 OA
ATOM      8  N   UNL     1      29.936  -2.669  11.185  0.00  0.00    +0.000 N 
ATOM      9  N   UNL     1      28.673  -0.648  10.855  0.00  0.00    +0.000 NA
ATOM     13  C   UNL     1      29.049  -1.833  10.422  0.00  0.00    +0.000 A 
ATOM     16  C   UNL     1      28.525  -2.198   9.192  0.00  0.00    +0.000 A 
ATOM     18  C   UNL     1      27.758  -1.112   8.863  0.00  0.00    +0.000 A 
ATOM     19  C   UNL     1      26.911  -0.779   7.712  0.00  0.00    +0.000 C 
ATOM     20  H   UNL     1      30.124  -3.603  10.796  0.00  0.00    +0.000 HD
ENDBRANCH   4   8
TORSDOF 2
ENDMDL
MODEL 7
REMARK VINA RESULT:      -6.1     18.678     20.441
REMARK  Name = 4596756
REMARK  3 active torsions:
REMARK  status: ('A' for Active; 'I' for Inactive)
REMARK    1  A    between atoms: S_4  and  N_8
REMARK    2  A    between atoms: S_4  and  C_10
REMARK    3  A    between atoms: C_18  and  C_19
REMARK                            x       y       z     vdW  Elec       q    Type
REMARK                         _______ _______ _______ _____ _____    ______ ____
ROOT
ATOM      4  S   UNL     1      18.315  -9.142  22.884  0.00  0.00    +0.000 S 
ATOM      5  O   UNL     1      19.245  -9.272  23.997  0.00  0.00    +0.000 OA
ATOM      6  O   UNL     1      18.208  -7.862  22.197  0.00  0.00    +0.000 OA
ENDROOT
BRANCH   4  10
ATOM      1 CL   UNL     1      15.681  -9.023  21.011  0.00  0.00    +0.000 Cl
ATOM      2 CL   UNL     1      15.294 -10.896  26.954  0.00  0.00    +0.000 Cl
ATOM      3 CL   UNL     1      12.668 -10.774  25.066  0.00  0.00    +0.000 Cl
ATOM     10  C   UNL     1      16.726  -9.592  23.471  0.00  0.00    +0.000 A 
ATOM     11  C   UNL     1      15.595  -9.539  22.657  0.00  0.00    +0.000 A 
ATOM     12  C   UNL     1      16.613 -10.014  24.795  0.00  0.00    +0.000 A 
ATOM     14  C   UNL     1      15.369 -10.384  25.306  0.00  0.00    +0.000 A 
ATOM     15  C   UNL     1      14.350  -9.909  23.167  0.00  0.00    +0.000 A 
ATOM     17  C   UNL     1      14.237 -10.331  24.492  0.00  0.00    +0.000 A 
ENDBRANCH   4  10
BRANCH   4   8
ATOM      7  O   UNL     1      21.784  -9.744  20.258  0.00  0.00    +0.000 OA
ATOM      8  N   UNL     1      18.660 -10.386  21.745  0.00  0.00    +0.000 N 
ATOM      9  N   UNL     1      20.588  -9.296  20.805  0.00  0.00    +0.000 NA
ATOM     13  C   UNL     1      19.962 -10.406  21.134  0.00  0.00    +0.000 A 
ATOM     16  C   UNL     1      20.652 -11.572  20.846  0.00  0.00    +0.000 A 
ATOM     18  C   UNL     1      21.810 -11.101  20.287  0.00  0.00    +0.000 A 
ATOM     19  C   UNL     1      23.010 -11.746  19.743  0.00  0.00    +0.000 C 
ATOM     20  H   UNL     1      18.223 -11.302  21.909  0.00  0.00    +0.000 HD
ENDBRANCH   4   8
TORSDOF 2
ENDMDL
MODEL 8
REMARK VINA RESULT:      -6.0      5.332      7.917
REMARK  Name = 4596756
REMARK  3 active torsions:
REMARK  status: ('A' for Active; 'I' for Inactive)
REMARK    1  A    between atoms: S_4  and  N_8
REMARK    2  A    between atoms: S_4  and  C_10
REMARK    3  A    between atoms: C_18  and  C_19
REMARK                            x       y       z     vdW  Elec       q    Type
REMARK                         _______ _______ _______ _____ _____    ______ ____
ROOT
ATOM      4  S   UNL     1      32.976  -2.372  13.013  0.00  0.00    +0.000 S 
ATOM      5  O   UNL     1      34.199  -2.117  12.264  0.00  0.00    +0.000 OA
ATOM      6  O   UNL     1      32.937  -3.492  13.943  0.00  0.00    +0.000 OA
ENDROOT
BRANCH   4  10
ATOM      1 CL   UNL     1      32.803  -4.924  11.034  0.00  0.00    +0.000 Cl
ATOM      2 CL   UNL     1      28.455  -0.447  10.861  0.00  0.00    +0.000 Cl
ATOM      3 CL   UNL     1      28.296  -3.008   8.890  0.00  0.00    +0.000 Cl
ATOM     10  C   UNL     1      31.679  -2.572  11.851  0.00  0.00    +0.000 A 
ATOM     11  C   UNL     1      31.611  -3.676  11.002  0.00  0.00    +0.000 A 
ATOM     12  C   UNL     1      30.695  -1.585  11.793  0.00  0.00    +0.000 A 
ATOM     14  C   UNL     1      29.642  -1.703  10.886  0.00  0.00    +0.000 A 
ATOM     15  C   UNL     1      30.557  -3.793  10.094  0.00  0.00    +0.000 A 
ATOM     17  C   UNL     1      29.574  -2.807  10.036  0.00  0.00    +0.000 A 
ENDBRANCH   4  10
BRANCH   4   8
ATOM      7  O   UNL     1      35.024  -0.116  16.176  0.00  0.00    +0.000 OA
ATOM      8  N   UNL     1      32.531  -0.924  13.828  0.00  0.00    +0.000 N 
ATOM      9  N   UNL     1      34.273  -1.057  15.482  0.00  0.00    +0.000 NA
ATOM     13  C   UNL     1      33.486  -0.326  14.721  0.00  0.00    +0.000 A 
ATOM     16  C   UNL     1      33.653   1.043  14.854  0.00  0.00    +0.000 A 
ATOM     18  C   UNL     1      34.646   1.131  15.794  0.00  0.00    +0.000 A 
ATOM     19  C   UNL     1      35.343   2.253  16.432  0.00  0.00    +0.000 C 
ATOM     20  H   UNL     1      31.916  -0.274  13.321  0.00  0.00    +0.000 HD
ENDBRANCH   4   8
TORSDOF 2
ENDMDL
MODEL 9
REMARK VINA RESULT:      -5.9     20.449     21.974
REMARK  Name = 4596756
REMARK  3 active torsions:
REMARK  status: ('A' for Active; 'I' for Inactive)
REMARK    1  A    between atoms: S_4  and  N_8
REMARK    2  A    between atoms: S_4  and  C_10
REMARK    3  A    between atoms: C_18  and  C_19
REMARK                            x       y       z     vdW  Elec       q    Type
REMARK                         _______ _______ _______ _____ _____    ______ ____
ROOT
ATOM      4  S   UNL     1      17.216  -9.777  22.502  0.00  0.00    +0.000 S 
ATOM      5  O   UNL     1      17.974  -8.535  22.544  0.00  0.00    +0.000 OA
ATOM      6  O   UNL     1      16.542 -10.153  21.266  0.00  0.00    +0.000 OA
ENDROOT
BRANCH   4  10
ATOM      1 CL   UNL     1      14.377  -8.269  22.149  0.00  0.00    +0.000 Cl
ATOM      2 CL   UNL     1      15.844 -11.102  27.516  0.00  0.00    +0.000 Cl
ATOM      3 CL   UNL     1      13.006  -9.591  27.144  0.00  0.00    +0.000 Cl
ATOM     10  C   UNL     1      16.023  -9.710  23.785  0.00  0.00    +0.000 A 
ATOM     11  C   UNL     1      14.801  -9.059  23.624  0.00  0.00    +0.000 A 
ATOM     12  C   UNL     1      16.327 -10.336  24.994  0.00  0.00    +0.000 A 
ATOM     14  C   UNL     1      15.408 -10.311  26.043  0.00  0.00    +0.000 A 
ATOM     15  C   UNL     1      13.881  -9.034  24.673  0.00  0.00    +0.000 A 
ATOM     17  C   UNL     1      14.185  -9.659  25.882  0.00  0.00    +0.000 A 
ENDBRANCH   4  10
BRANCH   4   8
ATOM      7  O   UNL     1      16.901 -14.120  21.926  0.00  0.00    +0.000 OA
ATOM      8  N   UNL     1      18.247 -11.056  23.014  0.00  0.00    +0.000 N 
ATOM      9  N   UNL     1      16.735 -12.822  22.392  0.00  0.00    +0.000 NA
ATOM     13  C   UNL     1      17.968 -12.385  22.540  0.00  0.00    +0.000 A 
ATOM     16  C   UNL     1      18.955 -13.299  22.207  0.00  0.00    +0.000 A 
ATOM     18  C   UNL     1      18.227 -14.393  21.821  0.00  0.00    +0.000 A 
ATOM     19  C   UNL     1      18.585 -15.733  21.339  0.00  0.00    +0.000 C 
ATOM     20  H   UNL     1      19.239 -10.826  23.157  0.00  0.00    +0.000 HD
ENDBRANCH   4   8
TORSDOF 2
ENDMDL
