REMARK  Name = 5329
REMARK  4 active torsions:
REMARK  status: ('A' for Active; 'I' for Inactive)
REMARK    1  A    between atoms: S_1  and  N_5
REMARK    2  A    between atoms: S_1  and  C_8
REMARK    3  A    between atoms: N_7  and  C_12
REMARK    4  A    between atoms: C_16  and  C_17
REMARK                            x       y       z     vdW  Elec       q    Type
REMARK                         _______ _______ _______ _____ _____    ______ ____
ROOT
ATOM      1  S   UNL     1       0.265  -2.203  -0.085  0.00  0.00    +0.000 S 
ATOM      3  O   UNL     1       0.946  -3.203   0.729  0.00  0.00    +0.000 OA
ATOM      4  O   UNL     1      -0.056  -2.525  -1.470  0.00  0.00    +0.000 OA
ENDROOT
BRANCH   1   5
ATOM      2  O   UNL     1      -2.642   0.966  -0.979  0.00  0.00    +0.000 OA
ATOM      5  N   UNL     1      -1.169  -1.727   0.744  0.00  0.00    +0.000 N 
ATOM      6  N   UNL     1      -1.928  -0.227  -0.978  0.00  0.00    +0.000 NA
ATOM     11  C   UNL     1      -1.845  -0.538   0.299  0.00  0.00    +0.000 A 
ATOM     15  C   UNL     1      -2.454   0.361   1.159  0.00  0.00    +0.000 A 
ATOM     16  C   UNL     1      -2.949   1.305   0.299  0.00  0.00    +0.000 A 
ATOM     17  C   UNL     1      -3.709   2.548   0.483  0.00  0.00    +0.000 C 
ATOM     18  H   UNL     1      -1.208  -1.919   1.753  0.00  0.00    +0.000 HD
ENDBRANCH   1   5
BRANCH   1   8
ATOM      8  C   UNL     1       1.229  -0.748  -0.057  0.00  0.00    +0.000 A 
ATOM      9  C   UNL     1       2.105  -0.511   1.002  0.00  0.00    +0.000 A 
ATOM     10  C   UNL     1       1.123   0.179  -1.095  0.00  0.00    +0.000 A 
ATOM     12  C   UNL     1       2.769   1.578  -0.013  0.00  0.00    +0.000 A 
ATOM     13  C   UNL     1       2.875   0.651   1.024  0.00  0.00    +0.000 A 
ATOM     14  C   UNL     1       1.893   1.341  -1.072  0.00  0.00    +0.000 A 
BRANCH  12   7
ATOM      7  N   UNL     1       3.549   2.753   0.009  0.00  0.00    +0.000 N 
ATOM     19  H   UNL     1       4.183   2.926   0.777  0.00  0.00    +0.000 HD
ATOM     20  H   UNL     1       3.471   3.426  -0.742  0.00  0.00    +0.000 HD
ENDBRANCH  12   7
ENDBRANCH   1   8
TORSDOF 3
