MODEL 1
REMARK VINA RESULT:      -8.6      0.000      0.000
REMARK  Name = 65280
REMARK  5 active torsions:
REMARK  status: ('A' for Active; 'I' for Inactive)
REMARK    1  A    between atoms: S_1  and  N_6
REMARK    2  A    between atoms: S_1  and  C_9
REMARK    3  A    between atoms: N_7  and  C_12
REMARK    4  A    between atoms: C_17  and  C_18
REMARK    5  A    between atoms: C_19  and  C_20
REMARK                            x       y       z     vdW  Elec       q    Type
REMARK                         _______ _______ _______ _____ _____    ______ ____
ROOT
ATOM      1  S   UNL     1      24.647  -5.305   7.936  0.00  0.00    +0.000 S 
ATOM      2  O   UNL     1      25.424  -6.352   7.283  0.00  0.00    +0.000 OA
ATOM      3  O   UNL     1      24.131  -5.529   9.281  0.00  0.00    +0.000 OA
ENDROOT
BRANCH   1   6
ATOM      4  O   UNL     1      21.219  -2.429   8.313  0.00  0.00    +0.000 OA
ATOM      6  N   UNL     1      23.360  -4.845   6.912  0.00  0.00    +0.000 N 
ATOM      8  N   UNL     1      22.334  -3.255   8.397  0.00  0.00    +0.000 NA
ATOM     15  C   UNL     1      22.363  -3.895   7.234  0.00  0.00    +0.000 A 
ATOM     16  C   UNL     1      21.318  -3.533   6.378  0.00  0.00    +0.000 A 
ATOM     17  C   UNL     1      20.622  -2.603   7.106  0.00  0.00    +0.000 A 
ATOM     18  C   UNL     1      19.420  -1.801   6.847  0.00  0.00    +0.000 C 
ATOM     21  H   UNL     1      23.243  -5.354   6.027  0.00  0.00    +0.000 HD
ENDBRANCH   1   6
BRANCH   1   9
ATOM      9  C   UNL     1      25.607  -3.847   7.959  0.00  0.00    +0.000 A 
ATOM     10  C   UNL     1      26.021  -3.266   6.760  0.00  0.00    +0.000 A 
ATOM     11  C   UNL     1      25.959  -3.264   9.175  0.00  0.00    +0.000 A 
ATOM     12  C   UNL     1      27.140  -1.517   7.994  0.00  0.00    +0.000 A 
ATOM     13  C   UNL     1      26.787  -2.102   6.778  0.00  0.00    +0.000 A 
ATOM     14  C   UNL     1      26.726  -2.098   9.193  0.00  0.00    +0.000 A 
BRANCH  12   7
ATOM      5  O   UNL     1      29.732  -0.902   9.400  0.00  0.00    +0.000 OA
ATOM      7  N   UNL     1      27.907  -0.352   8.011  0.00  0.00    +0.000 N 
ATOM     19  C   UNL     1      29.111  -0.118   8.688  0.00  0.00    +0.000 C 
ATOM     20  C   UNL     1      29.626   1.280   8.449  0.00  0.00    +0.000 C 
ATOM     22  H   UNL     1      27.536   0.421   7.460  0.00  0.00    +0.000 HD
ENDBRANCH  12   7
ENDBRANCH   1   9
TORSDOF 3
ENDMDL
MODEL 2
REMARK VINA RESULT:      -8.1      3.234      4.476
REMARK  Name = 65280
REMARK  5 active torsions:
REMARK  status: ('A' for Active; 'I' for Inactive)
REMARK    1  A    between atoms: S_1  and  N_6
REMARK    2  A    between atoms: S_1  and  C_9
REMARK    3  A    between atoms: N_7  and  C_12
REMARK    4  A    between atoms: C_17  and  C_18
REMARK    5  A    between atoms: C_19  and  C_20
REMARK                            x       y       z     vdW  Elec       q    Type
REMARK                         _______ _______ _______ _____ _____    ______ ____
ROOT
ATOM      1  S   UNL     1      26.536  -1.751   7.505  0.00  0.00    +0.000 S 
ATOM      2  O   UNL     1      26.008  -0.396   7.402  0.00  0.00    +0.000 OA
ATOM      3  O   UNL     1      26.962  -2.448   6.298  0.00  0.00    +0.000 OA
ENDROOT
BRANCH   1   6
ATOM      4  O   UNL     1      24.879  -5.878   6.882  0.00  0.00    +0.000 OA
ATOM      6  N   UNL     1      25.413  -2.724   8.348  0.00  0.00    +0.000 N 
ATOM      8  N   UNL     1      25.507  -4.638   6.893  0.00  0.00    +0.000 NA
ATOM     15  C   UNL     1      25.022  -4.030   7.970  0.00  0.00    +0.000 A 
ATOM     16  C   UNL     1      24.101  -4.809   8.677  0.00  0.00    +0.000 A 
ATOM     17  C   UNL     1      24.044  -5.968   7.948  0.00  0.00    +0.000 A 
ATOM     18  C   UNL     1      23.296  -7.223   8.091  0.00  0.00    +0.000 C 
ATOM     21  H   UNL     1      24.913  -2.304   9.141  0.00  0.00    +0.000 HD
ENDBRANCH   1   6
BRANCH   1   9
ATOM      9  C   UNL     1      27.878  -1.730   8.622  0.00  0.00    +0.000 A 
ATOM     10  C   UNL     1      28.485  -0.520   8.960  0.00  0.00    +0.000 A 
ATOM     11  C   UNL     1      28.342  -2.923   9.176  0.00  0.00    +0.000 A 
ATOM     12  C   UNL     1      30.021  -1.696  10.407  0.00  0.00    +0.000 A 
ATOM     13  C   UNL     1      29.556  -0.503   9.853  0.00  0.00    +0.000 A 
ATOM     14  C   UNL     1      29.414  -2.906  10.068  0.00  0.00    +0.000 A 
BRANCH  12   7
ATOM      5  O   UNL     1      30.062  -1.494  13.411  0.00  0.00    +0.000 OA
ATOM      7  N   UNL     1      31.094  -1.679  11.299  0.00  0.00    +0.000 N 
ATOM     19  C   UNL     1      31.055  -1.581  12.696  0.00  0.00    +0.000 C 
ATOM     20  C   UNL     1      32.439  -1.596  13.297  0.00  0.00    +0.000 C 
ATOM     22  H   UNL     1      32.016  -1.746  10.872  0.00  0.00    +0.000 HD
ENDBRANCH  12   7
ENDBRANCH   1   9
TORSDOF 3
ENDMDL
MODEL 3
REMARK VINA RESULT:      -7.2      6.117     10.361
REMARK  Name = 65280
REMARK  5 active torsions:
REMARK  status: ('A' for Active; 'I' for Inactive)
REMARK    1  A    between atoms: S_1  and  N_6
REMARK    2  A    between atoms: S_1  and  C_9
REMARK    3  A    between atoms: N_7  and  C_12
REMARK    4  A    between atoms: C_17  and  C_18
REMARK    5  A    between atoms: C_19  and  C_20
REMARK                            x       y       z     vdW  Elec       q    Type
REMARK                         _______ _______ _______ _____ _____    ______ ____
ROOT
ATOM      1  S   UNL     1      32.093  -2.508  13.360  0.00  0.00    +0.000 S 
ATOM      2  O   UNL     1      31.434  -3.017  14.557  0.00  0.00    +0.000 OA
ATOM      3  O   UNL     1      33.262  -3.202  12.835  0.00  0.00    +0.000 OA
ENDROOT
BRANCH   1   6
ATOM      4  O   UNL     1      34.702  -0.281  16.259  0.00  0.00    +0.000 OA
ATOM      6  N   UNL     1      32.478  -0.860  13.594  0.00  0.00    +0.000 N 
ATOM      8  N   UNL     1      33.958  -1.149  15.468  0.00  0.00    +0.000 NA
ATOM     15  C   UNL     1      33.345  -0.361  14.593  0.00  0.00    +0.000 A 
ATOM     16  C   UNL     1      33.647   0.994  14.765  0.00  0.00    +0.000 A 
ATOM     17  C   UNL     1      34.508   0.992  15.832  0.00  0.00    +0.000 A 
ATOM     18  C   UNL     1      35.224   2.046  16.561  0.00  0.00    +0.000 C 
ATOM     21  H   UNL     1      31.979  -0.164  13.027  0.00  0.00    +0.000 HD
ENDBRANCH   1   6
BRANCH   1   9
ATOM      9  C   UNL     1      30.905  -2.405  12.085  0.00  0.00    +0.000 A 
ATOM     10  C   UNL     1      29.832  -1.522  12.200  0.00  0.00    +0.000 A 
ATOM     11  C   UNL     1      31.030  -3.208  10.951  0.00  0.00    +0.000 A 
ATOM     12  C   UNL     1      29.007  -2.241  10.047  0.00  0.00    +0.000 A 
ATOM     13  C   UNL     1      28.884  -1.439  11.182  0.00  0.00    +0.000 A 
ATOM     14  C   UNL     1      30.080  -3.126   9.931  0.00  0.00    +0.000 A 
BRANCH  12   7
ATOM      5  O   UNL     1      27.882   0.155   8.612  0.00  0.00    +0.000 OA
ATOM      7  N   UNL     1      28.057  -2.159   9.028  0.00  0.00    +0.000 N 
ATOM     19  C   UNL     1      27.566  -1.011   8.394  0.00  0.00    +0.000 C 
ATOM     20  C   UNL     1      26.544  -1.348   7.338  0.00  0.00    +0.000 C 
ATOM     22  H   UNL     1      27.680  -3.051   8.713  0.00  0.00    +0.000 HD
ENDBRANCH  12   7
ENDBRANCH   1   9
TORSDOF 3
ENDMDL
MODEL 4
REMARK VINA RESULT:      -6.6      6.448     10.135
REMARK  Name = 65280
REMARK  5 active torsions:
REMARK  status: ('A' for Active; 'I' for Inactive)
REMARK    1  A    between atoms: S_1  and  N_6
REMARK    2  A    between atoms: S_1  and  C_9
REMARK    3  A    between atoms: N_7  and  C_12
REMARK    4  A    between atoms: C_17  and  C_18
REMARK    5  A    between atoms: C_19  and  C_20
REMARK                            x       y       z     vdW  Elec       q    Type
REMARK                         _______ _______ _______ _____ _____    ______ ____
ROOT
ATOM      1  S   UNL     1      32.101  -1.809  12.848  0.00  0.00    +0.000 S 
ATOM      2  O   UNL     1      33.253  -1.298  12.116  0.00  0.00    +0.000 OA
ATOM      3  O   UNL     1      31.543  -1.028  13.944  0.00  0.00    +0.000 OA
ENDROOT
BRANCH   1   6
ATOM      4  O   UNL     1      34.089  -3.466  16.518  0.00  0.00    +0.000 OA
ATOM      6  N   UNL     1      32.450  -3.386  13.405  0.00  0.00    +0.000 N 
ATOM      8  N   UNL     1      33.513  -2.758  15.470  0.00  0.00    +0.000 NA
ATOM     15  C   UNL     1      33.100  -3.694  14.623  0.00  0.00    +0.000 A 
ATOM     16  C   UNL     1      33.375  -4.994  15.059  0.00  0.00    +0.000 A 
ATOM     17  C   UNL     1      34.001  -4.797  16.262  0.00  0.00    +0.000 A 
ATOM     18  C   UNL     1      34.564  -5.698  17.275  0.00  0.00    +0.000 C 
ATOM     21  H   UNL     1      32.254  -4.174  12.775  0.00  0.00    +0.000 HD
ENDBRANCH   1   6
BRANCH   1   9
ATOM      9  C   UNL     1      30.823  -2.126  11.701  0.00  0.00    +0.000 A 
ATOM     10  C   UNL     1      29.628  -1.408  11.772  0.00  0.00    +0.000 A 
ATOM     11  C   UNL     1      30.996  -3.096  10.715  0.00  0.00    +0.000 A 
ATOM     12  C   UNL     1      28.780  -2.631   9.870  0.00  0.00    +0.000 A 
ATOM     13  C   UNL     1      28.608  -1.660  10.857  0.00  0.00    +0.000 A 
ATOM     14  C   UNL     1      29.974  -3.349   9.799  0.00  0.00    +0.000 A 
BRANCH  12   7
ATOM      5  O   UNL     1      27.623  -0.890   7.702  0.00  0.00    +0.000 OA
ATOM      7  N   UNL     1      27.758  -2.883   8.954  0.00  0.00    +0.000 N 
ATOM     19  C   UNL     1      27.256  -2.032   7.962  0.00  0.00    +0.000 C 
ATOM     20  C   UNL     1      26.146  -2.682   7.175  0.00  0.00    +0.000 C 
ATOM     22  H   UNL     1      27.330  -3.805   9.024  0.00  0.00    +0.000 HD
ENDBRANCH  12   7
ENDBRANCH   1   9
TORSDOF 3
ENDMDL
MODEL 5
REMARK VINA RESULT:      -6.6      6.492      8.714
REMARK  Name = 65280
REMARK  5 active torsions:
REMARK  status: ('A' for Active; 'I' for Inactive)
REMARK    1  A    between atoms: S_1  and  N_6
REMARK    2  A    between atoms: S_1  and  C_9
REMARK    3  A    between atoms: N_7  and  C_12
REMARK    4  A    between atoms: C_17  and  C_18
REMARK    5  A    between atoms: C_19  and  C_20
REMARK                            x       y       z     vdW  Elec       q    Type
REMARK                         _______ _______ _______ _____ _____    ______ ____
ROOT
ATOM      1  S   UNL     1      31.012  -2.000  12.122  0.00  0.00    +0.000 S 
ATOM      2  O   UNL     1      30.226  -1.515  13.250  0.00  0.00    +0.000 OA
ATOM      3  O   UNL     1      32.071  -1.163  11.573  0.00  0.00    +0.000 OA
ENDROOT
BRANCH   1   6
ATOM      4  O   UNL     1      28.061   0.196   9.547  0.00  0.00    +0.000 OA
ATOM      6  N   UNL     1      29.953  -2.462  10.864  0.00  0.00    +0.000 N 
ATOM      8  N   UNL     1      29.012  -0.290  10.436  0.00  0.00    +0.000 NA
ATOM     15  C   UNL     1      29.086  -1.588  10.168  0.00  0.00    +0.000 A 
ATOM     16  C   UNL     1      28.228  -1.989   9.138  0.00  0.00    +0.000 A 
ATOM     17  C   UNL     1      27.601  -0.825   8.779  0.00  0.00    +0.000 A 
ATOM     18  C   UNL     1      26.583  -0.486   7.777  0.00  0.00    +0.000 C 
ATOM     21  H   UNL     1      29.870  -3.463  10.648  0.00  0.00    +0.000 HD
ENDBRANCH   1   6
BRANCH   1   9
ATOM      9  C   UNL     1      31.710  -3.538  12.565  0.00  0.00    +0.000 A 
ATOM     10  C   UNL     1      31.876  -3.867  13.911  0.00  0.00    +0.000 A 
ATOM     11  C   UNL     1      32.102  -4.436  11.573  0.00  0.00    +0.000 A 
ATOM     12  C   UNL     1      32.826  -5.995  13.273  0.00  0.00    +0.000 A 
ATOM     13  C   UNL     1      32.433  -5.095  14.264  0.00  0.00    +0.000 A 
ATOM     14  C   UNL     1      32.661  -5.665  11.927  0.00  0.00    +0.000 A 
BRANCH  12   7
ATOM      5  O   UNL     1      32.162  -8.783  12.349  0.00  0.00    +0.000 OA
ATOM      7  N   UNL     1      33.384  -7.223  13.628  0.00  0.00    +0.000 N 
ATOM     19  C   UNL     1      33.034  -8.498  13.166  0.00  0.00    +0.000 C 
ATOM     20  C   UNL     1      33.881  -9.575  13.796  0.00  0.00    +0.000 C 
ATOM     22  H   UNL     1      34.139  -7.177  14.309  0.00  0.00    +0.000 HD
ENDBRANCH  12   7
ENDBRANCH   1   9
TORSDOF 3
ENDMDL
MODEL 6
REMARK VINA RESULT:      -6.3      6.909     11.349
REMARK  Name = 65280
REMARK  5 active torsions:
REMARK  status: ('A' for Active; 'I' for Inactive)
REMARK    1  A    between atoms: S_1  and  N_6
REMARK    2  A    between atoms: S_1  and  C_9
REMARK    3  A    between atoms: N_7  and  C_12
REMARK    4  A    between atoms: C_17  and  C_18
REMARK    5  A    between atoms: C_19  and  C_20
REMARK                            x       y       z     vdW  Elec       q    Type
REMARK                         _______ _______ _______ _____ _____    ______ ____
ROOT
ATOM      1  S   UNL     1      33.456  -1.791  13.492  0.00  0.00    +0.000 S 
ATOM      2  O   UNL     1      32.999  -2.723  14.516  0.00  0.00    +0.000 OA
ATOM      3  O   UNL     1      34.695  -2.066  12.774  0.00  0.00    +0.000 OA
ENDROOT
BRANCH   1   6
ATOM      4  O   UNL     1      35.860   0.093  16.785  0.00  0.00    +0.000 OA
ATOM      6  N   UNL     1      33.535  -0.222  14.163  0.00  0.00    +0.000 N 
ATOM      8  N   UNL     1      35.224  -0.673  15.815  0.00  0.00    +0.000 NA
ATOM     15  C   UNL     1      34.384   0.169  15.224  0.00  0.00    +0.000 A 
ATOM     16  C   UNL     1      34.432   1.461  15.756  0.00  0.00    +0.000 A 
ATOM     17  C   UNL     1      35.380   1.362  16.741  0.00  0.00    +0.000 A 
ATOM     18  C   UNL     1      35.947   2.312  17.705  0.00  0.00    +0.000 C 
ATOM     21  H   UNL     1      32.855   0.475  13.835  0.00  0.00    +0.000 HD
ENDBRANCH   1   6
BRANCH   1   9
ATOM      9  C   UNL     1      32.179  -1.600  12.318  0.00  0.00    +0.000 A 
ATOM     10  C   UNL     1      32.483  -1.214  11.013  0.00  0.00    +0.000 A 
ATOM     11  C   UNL     1      30.854  -1.833  12.686  0.00  0.00    +0.000 A 
ATOM     12  C   UNL     1      30.137  -1.294  10.442  0.00  0.00    +0.000 A 
ATOM     13  C   UNL     1      31.463  -1.061  10.075  0.00  0.00    +0.000 A 
ATOM     14  C   UNL     1      29.832  -1.680  11.748  0.00  0.00    +0.000 A 
BRANCH  12   7
ATOM      5  O   UNL     1      28.153   0.939  10.057  0.00  0.00    +0.000 OA
ATOM      7  N   UNL     1      29.116  -1.141   9.503  0.00  0.00    +0.000 N 
ATOM     19  C   UNL     1      28.216  -0.076   9.369  0.00  0.00    +0.000 C 
ATOM     20  C   UNL     1      27.261  -0.292   8.223  0.00  0.00    +0.000 C 
ATOM     22  H   UNL     1      29.022  -1.905   8.836  0.00  0.00    +0.000 HD
ENDBRANCH  12   7
ENDBRANCH   1   9
TORSDOF 3
ENDMDL
MODEL 7
REMARK VINA RESULT:      -6.2      5.683      9.331
REMARK  Name = 65280
REMARK  5 active torsions:
REMARK  status: ('A' for Active; 'I' for Inactive)
REMARK    1  A    between atoms: S_1  and  N_6
REMARK    2  A    between atoms: S_1  and  C_9
REMARK    3  A    between atoms: N_7  and  C_12
REMARK    4  A    between atoms: C_17  and  C_18
REMARK    5  A    between atoms: C_19  and  C_20
REMARK                            x       y       z     vdW  Elec       q    Type
REMARK                         _______ _______ _______ _____ _____    ______ ____
ROOT
ATOM      1  S   UNL     1      33.179  -0.210   9.808  0.00  0.00    +0.000 S 
ATOM      2  O   UNL     1      33.692  -1.050   8.732  0.00  0.00    +0.000 OA
ATOM      3  O   UNL     1      33.372  -0.622  11.193  0.00  0.00    +0.000 OA
ENDROOT
BRANCH   1   6
ATOM      4  O   UNL     1      29.464  -2.721  10.062  0.00  0.00    +0.000 OA
ATOM      6  N   UNL     1      31.519   0.088   9.539  0.00  0.00    +0.000 N 
ATOM      8  N   UNL     1      30.719  -2.124  10.043  0.00  0.00    +0.000 NA
ATOM     15  C   UNL     1      30.487  -0.869   9.679  0.00  0.00    +0.000 A 
ATOM     16  C   UNL     1      29.132  -0.601   9.454  0.00  0.00    +0.000 A 
ATOM     17  C   UNL     1      28.527  -1.804   9.709  0.00  0.00    +0.000 A 
ATOM     18  C   UNL     1      27.135  -2.268   9.676  0.00  0.00    +0.000 C 
ATOM     21  H   UNL     1      31.250   1.005   9.162  0.00  0.00    +0.000 HD
ENDBRANCH   1   6
BRANCH   1   9
ATOM      9  C   UNL     1      33.851   1.390   9.618  0.00  0.00    +0.000 A 
ATOM     10  C   UNL     1      33.780   2.034   8.383  0.00  0.00    +0.000 A 
ATOM     11  C   UNL     1      34.458   2.023  10.702  0.00  0.00    +0.000 A 
ATOM     12  C   UNL     1      34.924   3.947   9.314  0.00  0.00    +0.000 A 
ATOM     13  C   UNL     1      34.316   3.312   8.231  0.00  0.00    +0.000 A 
ATOM     14  C   UNL     1      34.996   3.302  10.550  0.00  0.00    +0.000 A 
BRANCH  12   7
ATOM      5  O   UNL     1      33.601   6.649   9.438  0.00  0.00    +0.000 OA
ATOM      7  N   UNL     1      35.460   5.226   9.161  0.00  0.00    +0.000 N 
ATOM     19  C   UNL     1      34.795   6.456   9.227  0.00  0.00    +0.000 C 
ATOM     20  C   UNL     1      35.736   7.614   9.007  0.00  0.00    +0.000 C 
ATOM     22  H   UNL     1      36.462   5.258   8.979  0.00  0.00    +0.000 HD
ENDBRANCH  12   7
ENDBRANCH   1   9
TORSDOF 3
ENDMDL
MODEL 8
REMARK VINA RESULT:      -6.1      5.752      8.444
REMARK  Name = 65280
REMARK  5 active torsions:
REMARK  status: ('A' for Active; 'I' for Inactive)
REMARK    1  A    between atoms: S_1  and  N_6
REMARK    2  A    between atoms: S_1  and  C_9
REMARK    3  A    between atoms: N_7  and  C_12
REMARK    4  A    between atoms: C_17  and  C_18
REMARK    5  A    between atoms: C_19  and  C_20
REMARK                            x       y       z     vdW  Elec       q    Type
REMARK                         _______ _______ _______ _____ _____    ______ ____
ROOT
ATOM      1  S   UNL     1      32.856  -2.201  12.058  0.00  0.00    +0.000 S 
ATOM      2  O   UNL     1      34.005  -3.099  12.060  0.00  0.00    +0.000 OA
ATOM      3  O   UNL     1      32.194  -1.880  13.316  0.00  0.00    +0.000 OA
ENDROOT
BRANCH   1   6
ATOM      4  O   UNL     1      28.533  -1.275  11.268  0.00  0.00    +0.000 OA
ATOM      6  N   UNL     1      31.696  -2.785  10.948  0.00  0.00    +0.000 N 
ATOM      8  N   UNL     1      29.857  -1.411  11.669  0.00  0.00    +0.000 NA
ATOM     15  C   UNL     1      30.354  -2.345  10.867  0.00  0.00    +0.000 A 
ATOM     16  C   UNL     1      29.421  -2.838   9.948  0.00  0.00    +0.000 A 
ATOM     17  C   UNL     1      28.285  -2.129  10.242  0.00  0.00    +0.000 A 
ATOM     18  C   UNL     1      26.925  -2.116   9.692  0.00  0.00    +0.000 C 
ATOM     21  H   UNL     1      31.959  -3.577  10.349  0.00  0.00    +0.000 HD
ENDBRANCH   1   6
BRANCH   1   9
ATOM      9  C   UNL     1      33.335  -0.704  11.298  0.00  0.00    +0.000 A 
ATOM     10  C   UNL     1      34.109   0.219  12.002  0.00  0.00    +0.000 A 
ATOM     11  C   UNL     1      32.943  -0.431   9.988  0.00  0.00    +0.000 A 
ATOM     12  C   UNL     1      34.100   1.688  10.085  0.00  0.00    +0.000 A 
ATOM     13  C   UNL     1      34.492   1.414  11.395  0.00  0.00    +0.000 A 
ATOM     14  C   UNL     1      33.325   0.766   9.381  0.00  0.00    +0.000 A 
BRANCH  12   7
ATOM      5  O   UNL     1      32.451   4.048   9.201  0.00  0.00    +0.000 OA
ATOM      7  N   UNL     1      34.483   2.885   9.478  0.00  0.00    +0.000 N 
ATOM     19  C   UNL     1      33.670   3.955   9.084  0.00  0.00    +0.000 C 
ATOM     20  C   UNL     1      34.472   5.070   8.462  0.00  0.00    +0.000 C 
ATOM     22  H   UNL     1      35.482   2.983   9.304  0.00  0.00    +0.000 HD
ENDBRANCH  12   7
ENDBRANCH   1   9
TORSDOF 3
ENDMDL
MODEL 9
REMARK VINA RESULT:      -6.0     18.215     19.070
REMARK  Name = 65280
REMARK  5 active torsions:
REMARK  status: ('A' for Active; 'I' for Inactive)
REMARK    1  A    between atoms: S_1  and  N_6
REMARK    2  A    between atoms: S_1  and  C_9
REMARK    3  A    between atoms: N_7  and  C_12
REMARK    4  A    between atoms: C_17  and  C_18
REMARK    5  A    between atoms: C_19  and  C_20
REMARK                            x       y       z     vdW  Elec       q    Type
REMARK                         _______ _______ _______ _____ _____    ______ ____
ROOT
ATOM      1  S   UNL     1      17.142 -10.639  23.154  0.00  0.00    +0.000 S 
ATOM      2  O   UNL     1      16.066 -11.100  24.023  0.00  0.00    +0.000 OA
ATOM      3  O   UNL     1      16.820 -10.109  21.835  0.00  0.00    +0.000 OA
ENDROOT
BRANCH   1   6
ATOM      4  O   UNL     1      17.026 -14.830  21.544  0.00  0.00    +0.000 OA
ATOM      6  N   UNL     1      18.299 -11.885  22.991  0.00  0.00    +0.000 N 
ATOM      8  N   UNL     1      16.851 -13.525  21.990  0.00  0.00    +0.000 NA
ATOM     15  C   UNL     1      18.046 -13.164  22.442  0.00  0.00    +0.000 A 
ATOM     16  C   UNL     1      19.010 -14.169  22.317  0.00  0.00    +0.000 A 
ATOM     17  C   UNL     1      18.316 -15.202  21.744  0.00  0.00    +0.000 A 
ATOM     18  C   UNL     1      18.678 -16.562  21.326  0.00  0.00    +0.000 C 
ATOM     21  H   UNL     1      19.229 -11.734  23.399  0.00  0.00    +0.000 HD
ENDBRANCH   1   6
BRANCH   1   9
ATOM      9  C   UNL     1      18.059  -9.430  24.016  0.00  0.00    +0.000 A 
ATOM     10  C   UNL     1      18.079  -8.112  23.560  0.00  0.00    +0.000 A 
ATOM     11  C   UNL     1      18.773  -9.782  25.162  0.00  0.00    +0.000 A 
ATOM     12  C   UNL     1      19.525  -7.497  25.394  0.00  0.00    +0.000 A 
ATOM     13  C   UNL     1      18.811  -7.146  24.248  0.00  0.00    +0.000 A 
ATOM     14  C   UNL     1      19.507  -8.815  25.851  0.00  0.00    +0.000 A 
BRANCH  12   7
ATOM      5  O   UNL     1      22.432  -6.736  25.193  0.00  0.00    +0.000 OA
ATOM      7  N   UNL     1      20.258  -6.530  26.082  0.00  0.00    +0.000 N 
ATOM     19  C   UNL     1      21.617  -6.217  25.950  0.00  0.00    +0.000 C 
ATOM     20  C   UNL     1      22.029  -5.103  26.880  0.00  0.00    +0.000 C 
ATOM     22  H   UNL     1      19.730  -5.989  26.765  0.00  0.00    +0.000 HD
ENDBRANCH  12   7
ENDBRANCH   1   9
TORSDOF 3
ENDMDL
