MODEL 1
REMARK VINA RESULT:      -7.8      0.000      0.000
REMARK  Name = 5344
REMARK  6 active torsions:
REMARK  status: ('A' for Active; 'I' for Inactive)
REMARK    1  A    between atoms: S_1  and  N_5
REMARK    2  A    between atoms: S_1  and  C_8
REMARK    3  A    between atoms: N_5  and  C_9
REMARK    4  A    between atoms: N_7  and  C_17
REMARK    5  A    between atoms: C_10  and  C_14
REMARK    6  A    between atoms: C_11  and  C_18
REMARK                            x       y       z     vdW  Elec       q    Type
REMARK                         _______ _______ _______ _____ _____    ______ ____
ROOT
ATOM      1  S   UNL     1      28.908   0.196   9.532  0.00  0.00    +0.000 S 
ATOM      3  O   UNL     1      29.787  -0.450  10.502  0.00  0.00    +0.000 OA
ATOM      4  O   UNL     1      28.064   1.298   9.975  0.00  0.00    +0.000 OA
ENDROOT
BRANCH   1   8
ATOM      8  C   UNL     1      27.894  -1.038   8.828  0.00  0.00    +0.000 A 
ATOM     12  C   UNL     1      27.702  -2.248   9.496  0.00  0.00    +0.000 A 
ATOM     13  C   UNL     1      27.275  -0.816   7.599  0.00  0.00    +0.000 A 
ATOM     15  C   UNL     1      26.892  -3.235   8.934  0.00  0.00    +0.000 A 
ATOM     16  C   UNL     1      26.464  -1.802   7.037  0.00  0.00    +0.000 A 
ATOM     17  C   UNL     1      26.273  -3.011   7.705  0.00  0.00    +0.000 A 
BRANCH  17   7
ATOM      7  N   UNL     1      25.453  -4.008   7.136  0.00  0.00    +0.000 N 
ATOM     20  H   UNL     1      24.610  -4.302   7.613  0.00  0.00    +0.000 HD
ATOM     21  H   UNL     1      25.708  -4.432   6.254  0.00  0.00    +0.000 HD
ENDBRANCH  17   7
ENDBRANCH   1   8
BRANCH   1   5
ATOM      5  N   UNL     1      29.869   0.707   8.197  0.00  0.00    +0.000 N 
ATOM     19  H   UNL     1      29.565   0.565   7.228  0.00  0.00    +0.000 HD
BRANCH   5   9
ATOM      2  O   UNL     1      30.827   2.983   8.476  0.00  0.00    +0.000 OA
ATOM      6  N   UNL     1      32.062   3.560   8.748  0.00  0.00    +0.000 NA
ATOM      9  C   UNL     1      30.949   1.624   8.451  0.00  0.00    +0.000 A 
ATOM     10  C   UNL     1      32.262   1.292   8.706  0.00  0.00    +0.000 A 
ATOM     11  C   UNL     1      32.903   2.531   8.882  0.00  0.00    +0.000 A 
ATOM     14  C   UNL     1      32.854  -0.054   8.776  0.00  0.00    +0.000 C 
ATOM     18  C   UNL     1      34.322   2.785   9.177  0.00  0.00    +0.000 C 
ENDBRANCH   5   9
ENDBRANCH   1   5
TORSDOF 4
ENDMDL
MODEL 2
REMARK VINA RESULT:      -7.8      4.838      8.612
REMARK  Name = 5344
REMARK  6 active torsions:
REMARK  status: ('A' for Active; 'I' for Inactive)
REMARK    1  A    between atoms: S_1  and  N_5
REMARK    2  A    between atoms: S_1  and  C_8
REMARK    3  A    between atoms: N_5  and  C_9
REMARK    4  A    between atoms: N_7  and  C_17
REMARK    5  A    between atoms: C_10  and  C_14
REMARK    6  A    between atoms: C_11  and  C_18
REMARK                            x       y       z     vdW  Elec       q    Type
REMARK                         _______ _______ _______ _____ _____    ______ ____
ROOT
ATOM      1  S   UNL     1      25.482  -4.490   7.801  0.00  0.00    +0.000 S 
ATOM      3  O   UNL     1      26.304  -5.588   8.299  0.00  0.00    +0.000 OA
ATOM      4  O   UNL     1      25.135  -4.460   6.386  0.00  0.00    +0.000 OA
ENDROOT
BRANCH   1   8
ATOM      8  C   UNL     1      26.284  -2.995   8.212  0.00  0.00    +0.000 A 
ATOM     12  C   UNL     1      27.018  -2.900   9.395  0.00  0.00    +0.000 A 
ATOM     13  C   UNL     1      26.191  -1.896   7.359  0.00  0.00    +0.000 A 
ATOM     15  C   UNL     1      27.658  -1.705   9.724  0.00  0.00    +0.000 A 
ATOM     16  C   UNL     1      26.832  -0.702   7.688  0.00  0.00    +0.000 A 
ATOM     17  C   UNL     1      27.566  -0.607   8.870  0.00  0.00    +0.000 A 
BRANCH  17   7
ATOM      7  N   UNL     1      28.214   0.602   9.202  0.00  0.00    +0.000 N 
ATOM     20  H   UNL     1      28.410   0.822  10.170  0.00  0.00    +0.000 HD
ATOM     21  H   UNL     1      28.479   1.251   8.473  0.00  0.00    +0.000 HD
ENDBRANCH  17   7
ENDBRANCH   1   8
BRANCH   1   5
ATOM      5  N   UNL     1      24.045  -4.426   8.748  0.00  0.00    +0.000 N 
ATOM     19  H   UNL     1      24.061  -4.577   9.763  0.00  0.00    +0.000 HD
BRANCH   5   9
ATOM      2  O   UNL     1      22.445  -2.562   8.376  0.00  0.00    +0.000 OA
ATOM      6  N   UNL     1      21.281  -2.325   7.655  0.00  0.00    +0.000 NA
ATOM      9  C   UNL     1      22.871  -3.840   8.159  0.00  0.00    +0.000 A 
ATOM     10  C   UNL     1      21.993  -4.457   7.294  0.00  0.00    +0.000 A 
ATOM     11  C   UNL     1      21.031  -3.472   7.016  0.00  0.00    +0.000 A 
ATOM     14  C   UNL     1      22.054  -5.837   6.781  0.00  0.00    +0.000 C 
ATOM     18  C   UNL     1      19.848  -3.576   6.146  0.00  0.00    +0.000 C 
ENDBRANCH   5   9
ENDBRANCH   1   5
TORSDOF 4
ENDMDL
MODEL 3
REMARK VINA RESULT:      -7.3      2.465      3.200
REMARK  Name = 5344
REMARK  6 active torsions:
REMARK  status: ('A' for Active; 'I' for Inactive)
REMARK    1  A    between atoms: S_1  and  N_5
REMARK    2  A    between atoms: S_1  and  C_8
REMARK    3  A    between atoms: N_5  and  C_9
REMARK    4  A    between atoms: N_7  and  C_17
REMARK    5  A    between atoms: C_10  and  C_14
REMARK    6  A    between atoms: C_11  and  C_18
REMARK                            x       y       z     vdW  Elec       q    Type
REMARK                         _______ _______ _______ _____ _____    ______ ____
ROOT
ATOM      1  S   UNL     1      28.858   0.262   9.328  0.00  0.00    +0.000 S 
ATOM      3  O   UNL     1      28.012   1.184  10.078  0.00  0.00    +0.000 OA
ATOM      4  O   UNL     1      29.685   0.788   8.249  0.00  0.00    +0.000 OA
ENDROOT
BRANCH   1   8
ATOM      8  C   UNL     1      27.835  -0.998   8.685  0.00  0.00    +0.000 A 
ATOM     12  C   UNL     1      27.526  -1.019   7.325  0.00  0.00    +0.000 A 
ATOM     13  C   UNL     1      27.327  -1.983   9.531  0.00  0.00    +0.000 A 
ATOM     15  C   UNL     1      26.708  -2.026   6.812  0.00  0.00    +0.000 A 
ATOM     16  C   UNL     1      26.509  -2.990   9.017  0.00  0.00    +0.000 A 
ATOM     17  C   UNL     1      26.200  -3.011   7.657  0.00  0.00    +0.000 A 
BRANCH  17   7
ATOM      7  N   UNL     1      25.374  -4.030   7.138  0.00  0.00    +0.000 N 
ATOM     20  H   UNL     1      25.729  -4.656   6.427  0.00  0.00    +0.000 HD
ATOM     21  H   UNL     1      24.425  -4.133   7.473  0.00  0.00    +0.000 HD
ENDBRANCH  17   7
ENDBRANCH   1   8
BRANCH   1   5
ATOM      5  N   UNL     1      29.850  -0.587  10.451  0.00  0.00    +0.000 N 
ATOM     19  H   UNL     1      29.474  -0.953  11.333  0.00  0.00    +0.000 HD
BRANCH   5   9
ATOM      2  O   UNL     1      32.198  -0.265   9.703  0.00  0.00    +0.000 OA
ATOM      6  N   UNL     1      33.271  -1.048   9.297  0.00  0.00    +0.000 NA
ATOM      9  C   UNL     1      31.131  -1.063  10.000  0.00  0.00    +0.000 A 
ATOM     10  C   UNL     1      31.490  -2.377   9.793  0.00  0.00    +0.000 A 
ATOM     11  C   UNL     1      32.825  -2.306   9.360  0.00  0.00    +0.000 A 
ATOM     14  C   UNL     1      30.661  -3.579   9.984  0.00  0.00    +0.000 C 
ATOM     18  C   UNL     1      33.720  -3.414   8.989  0.00  0.00    +0.000 C 
ENDBRANCH   5   9
ENDBRANCH   1   5
TORSDOF 4
ENDMDL
MODEL 4
REMARK VINA RESULT:      -7.2      4.536      6.655
REMARK  Name = 5344
REMARK  6 active torsions:
REMARK  status: ('A' for Active; 'I' for Inactive)
REMARK    1  A    between atoms: S_1  and  N_5
REMARK    2  A    between atoms: S_1  and  C_8
REMARK    3  A    between atoms: N_5  and  C_9
REMARK    4  A    between atoms: N_7  and  C_17
REMARK    5  A    between atoms: C_10  and  C_14
REMARK    6  A    between atoms: C_11  and  C_18
REMARK                            x       y       z     vdW  Elec       q    Type
REMARK                         _______ _______ _______ _____ _____    ______ ____
ROOT
ATOM      1  S   UNL     1      23.798  -3.873   8.270  0.00  0.00    +0.000 S 
ATOM      3  O   UNL     1      24.090  -3.662   9.684  0.00  0.00    +0.000 OA
ATOM      4  O   UNL     1      22.672  -3.166   7.673  0.00  0.00    +0.000 OA
ENDROOT
BRANCH   1   8
ATOM      8  C   UNL     1      23.577  -5.587   8.022  0.00  0.00    +0.000 A 
ATOM     12  C   UNL     1      22.474  -6.051   7.305  0.00  0.00    +0.000 A 
ATOM     13  C   UNL     1      24.502  -6.492   8.539  0.00  0.00    +0.000 A 
ATOM     15  C   UNL     1      22.296  -7.420   7.107  0.00  0.00    +0.000 A 
ATOM     16  C   UNL     1      24.326  -7.862   8.340  0.00  0.00    +0.000 A 
ATOM     17  C   UNL     1      23.222  -8.325   7.624  0.00  0.00    +0.000 A 
BRANCH  17   7
ATOM      7  N   UNL     1      23.045  -9.710   7.423  0.00  0.00    +0.000 N 
ATOM     20  H   UNL     1      22.916 -10.073   6.487  0.00  0.00    +0.000 HD
ATOM     21  H   UNL     1      23.041 -10.340   8.214  0.00  0.00    +0.000 HD
ENDBRANCH  17   7
ENDBRANCH   1   8
BRANCH   1   5
ATOM      5  N   UNL     1      25.230  -3.539   7.373  0.00  0.00    +0.000 N 
ATOM     19  H   UNL     1      25.227  -3.497   6.348  0.00  0.00    +0.000 HD
BRANCH   5   9
ATOM      2  O   UNL     1      27.143  -3.700   8.950  0.00  0.00    +0.000 OA
ATOM      6  N   UNL     1      28.142  -2.876   9.453  0.00  0.00    +0.000 NA
ATOM      9  C   UNL     1      26.361  -2.999   8.079  0.00  0.00    +0.000 A 
ATOM     10  C   UNL     1      26.836  -1.707   7.999  0.00  0.00    +0.000 A 
ATOM     11  C   UNL     1      27.939  -1.691   8.870  0.00  0.00    +0.000 A 
ATOM     14  C   UNL     1      26.305  -0.600   7.186  0.00  0.00    +0.000 C 
ATOM     18  C   UNL     1      28.832  -0.563   9.183  0.00  0.00    +0.000 C 
ENDBRANCH   5   9
ENDBRANCH   1   5
TORSDOF 4
ENDMDL
MODEL 5
REMARK VINA RESULT:      -6.9      2.988      4.188
REMARK  Name = 5344
REMARK  6 active torsions:
REMARK  status: ('A' for Active; 'I' for Inactive)
REMARK    1  A    between atoms: S_1  and  N_5
REMARK    2  A    between atoms: S_1  and  C_8
REMARK    3  A    between atoms: N_5  and  C_9
REMARK    4  A    between atoms: N_7  and  C_17
REMARK    5  A    between atoms: C_10  and  C_14
REMARK    6  A    between atoms: C_11  and  C_18
REMARK                            x       y       z     vdW  Elec       q    Type
REMARK                         _______ _______ _______ _____ _____    ______ ____
ROOT
ATOM      1  S   UNL     1      29.028  -0.458   9.770  0.00  0.00    +0.000 S 
ATOM      3  O   UNL     1      28.613  -0.488  11.168  0.00  0.00    +0.000 OA
ATOM      4  O   UNL     1      29.114   0.828   9.091  0.00  0.00    +0.000 OA
ENDROOT
BRANCH   1   8
ATOM      8  C   UNL     1      27.947  -1.494   8.872  0.00  0.00    +0.000 A 
ATOM     12  C   UNL     1      27.444  -1.075   7.639  0.00  0.00    +0.000 A 
ATOM     13  C   UNL     1      27.586  -2.739   9.385  0.00  0.00    +0.000 A 
ATOM     15  C   UNL     1      26.580  -1.902   6.922  0.00  0.00    +0.000 A 
ATOM     16  C   UNL     1      26.723  -3.566   8.666  0.00  0.00    +0.000 A 
ATOM     17  C   UNL     1      26.220  -3.147   7.435  0.00  0.00    +0.000 A 
BRANCH  17   7
ATOM      7  N   UNL     1      25.347  -3.984   6.709  0.00  0.00    +0.000 N 
ATOM     20  H   UNL     1      25.086  -4.888   7.082  0.00  0.00    +0.000 HD
ATOM     21  H   UNL     1      24.985  -3.684   5.814  0.00  0.00    +0.000 HD
ENDBRANCH  17   7
ENDBRANCH   1   8
BRANCH   1   5
ATOM      5  N   UNL     1      30.537  -1.279   9.643  0.00  0.00    +0.000 N 
ATOM     19  H   UNL     1      31.209  -1.060   8.899  0.00  0.00    +0.000 HD
BRANCH   5   9
ATOM      2  O   UNL     1      31.118  -1.561  12.043  0.00  0.00    +0.000 OA
ATOM      6  N   UNL     1      31.578  -2.566  12.885  0.00  0.00    +0.000 NA
ATOM      9  C   UNL     1      30.988  -2.046  10.773  0.00  0.00    +0.000 A 
ATOM     10  C   UNL     1      31.361  -3.373  10.767  0.00  0.00    +0.000 A 
ATOM     11  C   UNL     1      31.715  -3.639  12.101  0.00  0.00    +0.000 A 
ATOM     14  C   UNL     1      31.382  -4.298   9.621  0.00  0.00    +0.000 C 
ATOM     18  C   UNL     1      32.194  -4.905  12.678  0.00  0.00    +0.000 C 
ENDBRANCH   5   9
ENDBRANCH   1   5
TORSDOF 4
ENDMDL
MODEL 6
REMARK VINA RESULT:      -6.7      4.214      5.997
REMARK  Name = 5344
REMARK  6 active torsions:
REMARK  status: ('A' for Active; 'I' for Inactive)
REMARK    1  A    between atoms: S_1  and  N_5
REMARK    2  A    between atoms: S_1  and  C_8
REMARK    3  A    between atoms: N_5  and  C_9
REMARK    4  A    between atoms: N_7  and  C_17
REMARK    5  A    between atoms: C_10  and  C_14
REMARK    6  A    between atoms: C_11  and  C_18
REMARK                            x       y       z     vdW  Elec       q    Type
REMARK                         _______ _______ _______ _____ _____    ______ ____
ROOT
ATOM      1  S   UNL     1      31.520  -1.691  11.212  0.00  0.00    +0.000 S 
ATOM      3  O   UNL     1      31.751  -1.216   9.852  0.00  0.00    +0.000 OA
ATOM      4  O   UNL     1      32.231  -1.049  12.310  0.00  0.00    +0.000 OA
ENDROOT
BRANCH   1   8
ATOM      8  C   UNL     1      31.868  -3.402  11.246  0.00  0.00    +0.000 A 
ATOM     12  C   UNL     1      32.012  -4.108  10.051  0.00  0.00    +0.000 A 
ATOM     13  C   UNL     1      32.001  -4.063  12.466  0.00  0.00    +0.000 A 
ATOM     15  C   UNL     1      32.289  -5.474  10.078  0.00  0.00    +0.000 A 
ATOM     16  C   UNL     1      32.280  -5.430  12.493  0.00  0.00    +0.000 A 
ATOM     17  C   UNL     1      32.424  -6.135  11.298  0.00  0.00    +0.000 A 
BRANCH  17   7
ATOM      7  N   UNL     1      32.705  -7.517  11.326  0.00  0.00    +0.000 N 
ATOM     20  H   UNL     1      33.119  -7.965  10.518  0.00  0.00    +0.000 HD
ATOM     21  H   UNL     1      32.491  -8.061  12.150  0.00  0.00    +0.000 HD
ENDBRANCH  17   7
ENDBRANCH   1   8
BRANCH   1   5
ATOM      5  N   UNL     1      29.825  -1.640  11.516  0.00  0.00    +0.000 N 
ATOM     19  H   UNL     1      29.438  -1.827  12.448  0.00  0.00    +0.000 HD
BRANCH   5   9
ATOM      2  O   UNL     1      28.734   0.322  10.451  0.00  0.00    +0.000 OA
ATOM      6  N   UNL     1      27.875   0.579   9.389  0.00  0.00    +0.000 NA
ATOM      9  C   UNL     1      28.979  -1.019  10.532  0.00  0.00    +0.000 A 
ATOM     10  C   UNL     1      28.286  -1.657   9.526  0.00  0.00    +0.000 A 
ATOM     11  C   UNL     1      27.622  -0.618   8.852  0.00  0.00    +0.000 A 
ATOM     14  C   UNL     1      28.252  -3.099   9.230  0.00  0.00    +0.000 C 
ATOM     18  C   UNL     1      26.729  -0.718   7.686  0.00  0.00    +0.000 C 
ENDBRANCH   5   9
ENDBRANCH   1   5
TORSDOF 4
ENDMDL
MODEL 7
REMARK VINA RESULT:      -6.4      4.493      6.728
REMARK  Name = 5344
REMARK  6 active torsions:
REMARK  status: ('A' for Active; 'I' for Inactive)
REMARK    1  A    between atoms: S_1  and  N_5
REMARK    2  A    between atoms: S_1  and  C_8
REMARK    3  A    between atoms: N_5  and  C_9
REMARK    4  A    between atoms: N_7  and  C_17
REMARK    5  A    between atoms: C_10  and  C_14
REMARK    6  A    between atoms: C_11  and  C_18
REMARK                            x       y       z     vdW  Elec       q    Type
REMARK                         _______ _______ _______ _____ _____    ______ ____
ROOT
ATOM      1  S   UNL     1      31.168  -2.296  10.874  0.00  0.00    +0.000 S 
ATOM      3  O   UNL     1      31.003  -3.488  10.050  0.00  0.00    +0.000 OA
ATOM      4  O   UNL     1      31.928  -1.173  10.339  0.00  0.00    +0.000 OA
ENDROOT
BRANCH   1   8
ATOM      8  C   UNL     1      31.888  -2.788  12.386  0.00  0.00    +0.000 A 
ATOM     12  C   UNL     1      31.853  -4.128  12.771  0.00  0.00    +0.000 A 
ATOM     13  C   UNL     1      32.499  -1.842  13.209  0.00  0.00    +0.000 A 
ATOM     15  C   UNL     1      32.427  -4.522  13.980  0.00  0.00    +0.000 A 
ATOM     16  C   UNL     1      33.075  -2.236  14.417  0.00  0.00    +0.000 A 
ATOM     17  C   UNL     1      33.039  -3.576  14.802  0.00  0.00    +0.000 A 
BRANCH  17   7
ATOM      7  N   UNL     1      33.621  -3.974  16.024  0.00  0.00    +0.000 N 
ATOM     20  H   UNL     1      34.264  -4.755  16.047  0.00  0.00    +0.000 HD
ATOM     21  H   UNL     1      33.394  -3.481  16.877  0.00  0.00    +0.000 HD
ENDBRANCH  17   7
ENDBRANCH   1   8
BRANCH   1   5
ATOM      5  N   UNL     1      29.604  -1.756  11.354  0.00  0.00    +0.000 N 
ATOM     19  H   UNL     1      29.326  -1.719  12.340  0.00  0.00    +0.000 HD
BRANCH   5   9
ATOM      2  O   UNL     1      28.712   0.306  10.292  0.00  0.00    +0.000 OA
ATOM      6  N   UNL     1      27.855   0.647   9.253  0.00  0.00    +0.000 NA
ATOM      9  C   UNL     1      28.804  -1.053  10.387  0.00  0.00    +0.000 A 
ATOM     10  C   UNL     1      28.010  -1.619   9.413  0.00  0.00    +0.000 A 
ATOM     11  C   UNL     1      27.448  -0.519   8.743  0.00  0.00    +0.000 A 
ATOM     14  C   UNL     1      27.800  -3.051   9.141  0.00  0.00    +0.000 C 
ATOM     18  C   UNL     1      26.512  -0.529   7.607  0.00  0.00    +0.000 C 
ENDBRANCH   5   9
ENDBRANCH   1   5
TORSDOF 4
ENDMDL
MODEL 8
REMARK VINA RESULT:      -6.3      4.752      6.110
REMARK  Name = 5344
REMARK  6 active torsions:
REMARK  status: ('A' for Active; 'I' for Inactive)
REMARK    1  A    between atoms: S_1  and  N_5
REMARK    2  A    between atoms: S_1  and  C_8
REMARK    3  A    between atoms: N_5  and  C_9
REMARK    4  A    between atoms: N_7  and  C_17
REMARK    5  A    between atoms: C_10  and  C_14
REMARK    6  A    between atoms: C_11  and  C_18
REMARK                            x       y       z     vdW  Elec       q    Type
REMARK                         _______ _______ _______ _____ _____    ______ ____
ROOT
ATOM      1  S   UNL     1      31.583  -1.826  12.161  0.00  0.00    +0.000 S 
ATOM      3  O   UNL     1      32.728  -1.030  12.591  0.00  0.00    +0.000 OA
ATOM      4  O   UNL     1      30.264  -1.501  12.691  0.00  0.00    +0.000 OA
ENDROOT
BRANCH   1   8
ATOM      8  C   UNL     1      31.932  -3.498  12.517  0.00  0.00    +0.000 A 
ATOM     12  C   UNL     1      31.975  -3.935  13.842  0.00  0.00    +0.000 A 
ATOM     13  C   UNL     1      32.168  -4.398  11.479  0.00  0.00    +0.000 A 
ATOM     15  C   UNL     1      32.254  -5.272  14.127  0.00  0.00    +0.000 A 
ATOM     16  C   UNL     1      32.446  -5.736  11.764  0.00  0.00    +0.000 A 
ATOM     17  C   UNL     1      32.490  -6.172  13.088  0.00  0.00    +0.000 A 
BRANCH  17   7
ATOM      7  N   UNL     1      32.771  -7.524  13.375  0.00  0.00    +0.000 N 
ATOM     20  H   UNL     1      33.708  -7.884  13.246  0.00  0.00    +0.000 HD
ATOM     21  H   UNL     1      32.037  -8.135  13.707  0.00  0.00    +0.000 HD
ENDBRANCH  17   7
ENDBRANCH   1   8
BRANCH   1   5
ATOM      5  N   UNL     1      31.533  -1.804  10.439  0.00  0.00    +0.000 N 
ATOM     19  H   UNL     1      32.058  -2.482   9.877  0.00  0.00    +0.000 HD
BRANCH   5   9
ATOM      2  O   UNL     1      30.622   0.266   9.409  0.00  0.00    +0.000 OA
ATOM      6  N   UNL     1      29.435   0.698   8.830  0.00  0.00    +0.000 NA
ATOM      9  C   UNL     1      30.498  -1.036   9.801  0.00  0.00    +0.000 A 
ATOM     10  C   UNL     1      29.230  -1.474   9.485  0.00  0.00    +0.000 A 
ATOM     11  C   UNL     1      28.619  -0.359   8.886  0.00  0.00    +0.000 A 
ATOM     14  C   UNL     1      28.651  -2.807   9.722  0.00  0.00    +0.000 C 
ATOM     18  C   UNL     1      27.251  -0.250   8.352  0.00  0.00    +0.000 C 
ENDBRANCH   5   9
ENDBRANCH   1   5
TORSDOF 4
ENDMDL
MODEL 9
REMARK VINA RESULT:      -6.2      4.573      5.491
REMARK  Name = 5344
REMARK  6 active torsions:
REMARK  status: ('A' for Active; 'I' for Inactive)
REMARK    1  A    between atoms: S_1  and  N_5
REMARK    2  A    between atoms: S_1  and  C_8
REMARK    3  A    between atoms: N_5  and  C_9
REMARK    4  A    between atoms: N_7  and  C_17
REMARK    5  A    between atoms: C_10  and  C_14
REMARK    6  A    between atoms: C_11  and  C_18
REMARK                            x       y       z     vdW  Elec       q    Type
REMARK                         _______ _______ _______ _____ _____    ______ ____
ROOT
ATOM      1  S   UNL     1      31.157  -2.279  10.701  0.00  0.00    +0.000 S 
ATOM      3  O   UNL     1      32.253  -1.339  10.489  0.00  0.00    +0.000 OA
ATOM      4  O   UNL     1      31.362  -3.683  10.369  0.00  0.00    +0.000 OA
ENDROOT
BRANCH   1   8
ATOM      8  C   UNL     1      29.772  -1.692   9.815  0.00  0.00    +0.000 A 
ATOM     12  C   UNL     1      29.787  -0.408   9.268  0.00  0.00    +0.000 A 
ATOM     13  C   UNL     1      28.651  -2.505   9.653  0.00  0.00    +0.000 A 
ATOM     15  C   UNL     1      28.681   0.062   8.561  0.00  0.00    +0.000 A 
ATOM     16  C   UNL     1      27.545  -2.035   8.944  0.00  0.00    +0.000 A 
ATOM     17  C   UNL     1      27.560  -0.752   8.399  0.00  0.00    +0.000 A 
BRANCH  17   7
ATOM      7  N   UNL     1      26.441  -0.278   7.682  0.00  0.00    +0.000 N 
ATOM     20  H   UNL     1      26.495  -0.163   6.678  0.00  0.00    +0.000 HD
ATOM     21  H   UNL     1      25.586  -0.049   8.171  0.00  0.00    +0.000 HD
ENDBRANCH  17   7
ENDBRANCH   1   8
BRANCH   1   5
ATOM      5  N   UNL     1      30.646  -2.144  12.341  0.00  0.00    +0.000 N 
ATOM     19  H   UNL     1      29.661  -2.245  12.609  0.00  0.00    +0.000 HD
BRANCH   5   9
ATOM      2  O   UNL     1      32.222  -1.125  13.970  0.00  0.00    +0.000 OA
ATOM      6  N   UNL     1      33.150  -1.547  14.915  0.00  0.00    +0.000 NA
ATOM      9  C   UNL     1      31.649  -2.209  13.370  0.00  0.00    +0.000 A 
ATOM     10  C   UNL     1      32.193  -3.354  13.912  0.00  0.00    +0.000 A 
ATOM     11  C   UNL     1      33.114  -2.882  14.863  0.00  0.00    +0.000 A 
ATOM     14  C   UNL     1      31.878  -4.751  13.569  0.00  0.00    +0.000 C 
ATOM     18  C   UNL     1      33.990  -3.668  15.747  0.00  0.00    +0.000 C 
ENDBRANCH   5   9
ENDBRANCH   1   5
TORSDOF 4
ENDMDL
