MODEL 1
REMARK VINA RESULT:      -7.8      0.000      0.000
REMARK  Name = 31771
REMARK  5 active torsions:
REMARK  status: ('A' for Active; 'I' for Inactive)
REMARK    1  A    between atoms: S_1  and  N_5
REMARK    2  A    between atoms: S_1  and  C_8
REMARK    3  A    between atoms: N_7  and  C_17
REMARK    4  A    between atoms: C_10  and  C_14
REMARK    5  A    between atoms: C_11  and  C_18
REMARK                            x       y       z     vdW  Elec       q    Type
REMARK                         _______ _______ _______ _____ _____    ______ ____
ROOT
ATOM      1  S   UNL     1      29.076  -0.242   9.354  0.00  0.00    +0.000 S 
ATOM      3  O   UNL     1      28.483   0.258  10.588  0.00  0.00    +0.000 OA
ATOM      4  O   UNL     1      29.485   0.715   8.333  0.00  0.00    +0.000 OA
ENDROOT
BRANCH   1   5
ATOM      2  O   UNL     1      30.366  -1.651  13.267  0.00  0.00    +0.000 OA
ATOM      5  N   UNL     1      30.413  -1.246   9.771  0.00  0.00    +0.000 N 
ATOM      6  N   UNL     1      29.726  -1.342  12.072  0.00  0.00    +0.000 NA
ATOM      9  C   UNL     1      30.672  -1.483  11.166  0.00  0.00    +0.000 A 
ATOM     10  C   UNL     1      31.906  -1.864  11.668  0.00  0.00    +0.000 A 
ATOM     11  C   UNL     1      31.663  -1.960  13.012  0.00  0.00    +0.000 A 
ATOM     14  C   UNL     1      33.174  -2.111  10.962  0.00  0.00    +0.000 C 
ATOM     18  C   UNL     1      32.490  -2.311  14.175  0.00  0.00    +0.000 C 
ATOM     19  H   UNL     1      31.209  -1.317   9.125  0.00  0.00    +0.000 HD
ENDBRANCH   1   5
BRANCH   1   8
ATOM      8  C   UNL     1      27.951  -1.372   8.642  0.00  0.00    +0.000 A 
ATOM     12  C   UNL     1      27.660  -2.571   9.295  0.00  0.00    +0.000 A 
ATOM     13  C   UNL     1      27.344  -1.078   7.422  0.00  0.00    +0.000 A 
ATOM     15  C   UNL     1      26.763  -3.474   8.726  0.00  0.00    +0.000 A 
ATOM     16  C   UNL     1      26.447  -1.981   6.853  0.00  0.00    +0.000 A 
ATOM     17  C   UNL     1      26.156  -3.180   7.506  0.00  0.00    +0.000 A 
BRANCH  17   7
ATOM      7  N   UNL     1      25.248  -4.093   6.930  0.00  0.00    +0.000 N 
ATOM     20  H   UNL     1      24.806  -3.878   6.047  0.00  0.00    +0.000 HD
ATOM     21  H   UNL     1      25.040  -4.964   7.400  0.00  0.00    +0.000 HD
ENDBRANCH  17   7
ENDBRANCH   1   8
TORSDOF 3
ENDMDL
MODEL 2
REMARK VINA RESULT:      -7.5      4.692      8.510
REMARK  Name = 31771
REMARK  5 active torsions:
REMARK  status: ('A' for Active; 'I' for Inactive)
REMARK    1  A    between atoms: S_1  and  N_5
REMARK    2  A    between atoms: S_1  and  C_8
REMARK    3  A    between atoms: N_7  and  C_17
REMARK    4  A    between atoms: C_10  and  C_14
REMARK    5  A    between atoms: C_11  and  C_18
REMARK                            x       y       z     vdW  Elec       q    Type
REMARK                         _______ _______ _______ _____ _____    ______ ____
ROOT
ATOM      1  S   UNL     1      25.130  -4.021   7.762  0.00  0.00    +0.000 S 
ATOM      3  O   UNL     1      25.428  -5.164   8.616  0.00  0.00    +0.000 OA
ATOM      4  O   UNL     1      25.199  -4.187   6.316  0.00  0.00    +0.000 OA
ENDROOT
BRANCH   1   5
ATOM      2  O   UNL     1      21.240  -4.840   5.987  0.00  0.00    +0.000 OA
ATOM      5  N   UNL     1      23.577  -3.416   8.199  0.00  0.00    +0.000 N 
ATOM      6  N   UNL     1      22.483  -4.846   6.608  0.00  0.00    +0.000 NA
ATOM      9  C   UNL     1      22.454  -3.776   7.376  0.00  0.00    +0.000 A 
ATOM     10  C   UNL     1      21.277  -3.049   7.314  0.00  0.00    +0.000 A 
ATOM     11  C   UNL     1      20.532  -3.765   6.416  0.00  0.00    +0.000 A 
ATOM     14  C   UNL     1      20.895  -1.815   8.021  0.00  0.00    +0.000 C 
ATOM     18  C   UNL     1      19.184  -3.604   5.851  0.00  0.00    +0.000 C 
ATOM     19  H   UNL     1      23.510  -2.538   8.729  0.00  0.00    +0.000 HD
ENDBRANCH   1   5
BRANCH   1   8
ATOM      8  C   UNL     1      26.197  -2.718   8.227  0.00  0.00    +0.000 A 
ATOM     12  C   UNL     1      26.437  -1.665   7.343  0.00  0.00    +0.000 A 
ATOM     13  C   UNL     1      26.809  -2.730   9.480  0.00  0.00    +0.000 A 
ATOM     15  C   UNL     1      27.290  -0.625   7.713  0.00  0.00    +0.000 A 
ATOM     16  C   UNL     1      27.661  -1.690   9.849  0.00  0.00    +0.000 A 
ATOM     17  C   UNL     1      27.902  -0.638   8.966  0.00  0.00    +0.000 A 
BRANCH  17   7
ATOM      7  N   UNL     1      28.764   0.414   9.341  0.00  0.00    +0.000 N 
ATOM     20  H   UNL     1      28.828   1.245   8.768  0.00  0.00    +0.000 HD
ATOM     21  H   UNL     1      29.319   0.338  10.183  0.00  0.00    +0.000 HD
ENDBRANCH  17   7
ENDBRANCH   1   8
TORSDOF 3
ENDMDL
MODEL 3
REMARK VINA RESULT:      -7.3      6.025      9.260
REMARK  Name = 31771
REMARK  5 active torsions:
REMARK  status: ('A' for Active; 'I' for Inactive)
REMARK    1  A    between atoms: S_1  and  N_5
REMARK    2  A    between atoms: S_1  and  C_8
REMARK    3  A    between atoms: N_7  and  C_17
REMARK    4  A    between atoms: C_10  and  C_14
REMARK    5  A    between atoms: C_11  and  C_18
REMARK                            x       y       z     vdW  Elec       q    Type
REMARK                         _______ _______ _______ _____ _____    ______ ____
ROOT
ATOM      1  S   UNL     1      22.645  -5.620   7.495  0.00  0.00    +0.000 S 
ATOM      3  O   UNL     1      21.983  -5.837   8.775  0.00  0.00    +0.000 OA
ATOM      4  O   UNL     1      23.111  -6.776   6.739  0.00  0.00    +0.000 OA
ENDROOT
BRANCH   1   5
ATOM      2  O   UNL     1      20.895  -1.711   8.277  0.00  0.00    +0.000 OA
ATOM      5  N   UNL     1      21.602  -4.669   6.507  0.00  0.00    +0.000 N 
ATOM      6  N   UNL     1      21.692  -2.826   8.046  0.00  0.00    +0.000 NA
ATOM      9  C   UNL     1      21.085  -3.442   7.053  0.00  0.00    +0.000 A 
ATOM     10  C   UNL     1      19.933  -2.820   6.599  0.00  0.00    +0.000 A 
ATOM     11  C   UNL     1      19.852  -1.719   7.410  0.00  0.00    +0.000 A 
ATOM     14  C   UNL     1      19.010  -3.217   5.523  0.00  0.00    +0.000 C 
ATOM     18  C   UNL     1      18.902  -0.603   7.520  0.00  0.00    +0.000 C 
ATOM     19  H   UNL     1      21.048  -5.127   5.773  0.00  0.00    +0.000 HD
ENDBRANCH   1   5
BRANCH   1   8
ATOM      8  C   UNL     1      23.998  -4.550   7.770  0.00  0.00    +0.000 A 
ATOM     12  C   UNL     1      24.201  -3.994   9.033  0.00  0.00    +0.000 A 
ATOM     13  C   UNL     1      24.873  -4.250   6.727  0.00  0.00    +0.000 A 
ATOM     15  C   UNL     1      25.280  -3.139   9.254  0.00  0.00    +0.000 A 
ATOM     16  C   UNL     1      25.953  -3.394   6.947  0.00  0.00    +0.000 A 
ATOM     17  C   UNL     1      26.156  -2.839   8.211  0.00  0.00    +0.000 A 
BRANCH  17   7
ATOM      7  N   UNL     1      27.248  -1.974   8.433  0.00  0.00    +0.000 N 
ATOM     20  H   UNL     1      27.097  -1.064   8.847  0.00  0.00    +0.000 HD
ATOM     21  H   UNL     1      28.183  -2.264   8.179  0.00  0.00    +0.000 HD
ENDBRANCH  17   7
ENDBRANCH   1   8
TORSDOF 3
ENDMDL
MODEL 4
REMARK VINA RESULT:      -7.2      1.881      2.575
REMARK  Name = 31771
REMARK  5 active torsions:
REMARK  status: ('A' for Active; 'I' for Inactive)
REMARK    1  A    between atoms: S_1  and  N_5
REMARK    2  A    between atoms: S_1  and  C_8
REMARK    3  A    between atoms: N_7  and  C_17
REMARK    4  A    between atoms: C_10  and  C_14
REMARK    5  A    between atoms: C_11  and  C_18
REMARK                            x       y       z     vdW  Elec       q    Type
REMARK                         _______ _______ _______ _____ _____    ______ ____
ROOT
ATOM      1  S   UNL     1      29.008  -0.009   9.310  0.00  0.00    +0.000 S 
ATOM      3  O   UNL     1      28.329   0.607  10.443  0.00  0.00    +0.000 OA
ATOM      4  O   UNL     1      29.505   0.845   8.239  0.00  0.00    +0.000 OA
ENDROOT
BRANCH   1   5
ATOM      2  O   UNL     1      33.308   0.517   8.881  0.00  0.00    +0.000 OA
ATOM      5  N   UNL     1      30.296  -0.978   9.919  0.00  0.00    +0.000 N 
ATOM      6  N   UNL     1      31.946   0.590   9.147  0.00  0.00    +0.000 NA
ATOM      9  C   UNL     1      31.640  -0.628   9.545  0.00  0.00    +0.000 A 
ATOM     10  C   UNL     1      32.703  -1.517   9.565  0.00  0.00    +0.000 A 
ATOM     11  C   UNL     1      33.746  -0.742   9.134  0.00  0.00    +0.000 A 
ATOM     14  C   UNL     1      32.734  -2.939   9.946  0.00  0.00    +0.000 C 
ATOM     18  C   UNL     1      35.175  -0.995   8.900  0.00  0.00    +0.000 C 
ATOM     19  H   UNL     1      30.115  -1.959  10.164  0.00  0.00    +0.000 HD
ENDBRANCH   1   5
BRANCH   1   8
ATOM      8  C   UNL     1      27.925  -1.195   8.622  0.00  0.00    +0.000 A 
ATOM     12  C   UNL     1      27.640  -2.368   9.322  0.00  0.00    +0.000 A 
ATOM     13  C   UNL     1      27.347  -0.971   7.373  0.00  0.00    +0.000 A 
ATOM     15  C   UNL     1      26.777  -3.316   8.773  0.00  0.00    +0.000 A 
ATOM     16  C   UNL     1      26.484  -1.919   6.824  0.00  0.00    +0.000 A 
ATOM     17  C   UNL     1      26.199  -3.091   7.524  0.00  0.00    +0.000 A 
BRANCH  17   7
ATOM      7  N   UNL     1      25.326  -4.049   6.968  0.00  0.00    +0.000 N 
ATOM     20  H   UNL     1      24.368  -4.106   7.286  0.00  0.00    +0.000 HD
ATOM     21  H   UNL     1      25.657  -4.679   6.249  0.00  0.00    +0.000 HD
ENDBRANCH  17   7
ENDBRANCH   1   8
TORSDOF 3
ENDMDL
MODEL 5
REMARK VINA RESULT:      -6.9      2.643      6.496
REMARK  Name = 31771
REMARK  5 active torsions:
REMARK  status: ('A' for Active; 'I' for Inactive)
REMARK    1  A    between atoms: S_1  and  N_5
REMARK    2  A    between atoms: S_1  and  C_8
REMARK    3  A    between atoms: N_7  and  C_17
REMARK    4  A    between atoms: C_10  and  C_14
REMARK    5  A    between atoms: C_11  and  C_18
REMARK                            x       y       z     vdW  Elec       q    Type
REMARK                         _______ _______ _______ _____ _____    ______ ____
ROOT
ATOM      1  S   UNL     1      30.960  -1.985  12.015  0.00  0.00    +0.000 S 
ATOM      3  O   UNL     1      32.034  -1.169  11.462  0.00  0.00    +0.000 OA
ATOM      4  O   UNL     1      30.088  -1.406  13.028  0.00  0.00    +0.000 OA
ENDROOT
BRANCH   1   5
ATOM      2  O   UNL     1      28.586   0.211   9.101  0.00  0.00    +0.000 OA
ATOM      5  N   UNL     1      30.009  -2.578  10.707  0.00  0.00    +0.000 N 
ATOM      6  N   UNL     1      29.554  -0.352   9.923  0.00  0.00    +0.000 NA
ATOM      9  C   UNL     1      29.238  -1.631   9.947  0.00  0.00    +0.000 A 
ATOM     10  C   UNL     1      28.122  -1.967   9.198  0.00  0.00    +0.000 A 
ATOM     11  C   UNL     1      27.740  -0.761   8.676  0.00  0.00    +0.000 A 
ATOM     14  C   UNL     1      27.485  -3.279   8.995  0.00  0.00    +0.000 C 
ATOM     18  C   UNL     1      26.646  -0.332   7.792  0.00  0.00    +0.000 C 
ATOM     19  H   UNL     1      29.673  -3.549  10.728  0.00  0.00    +0.000 HD
ENDBRANCH   1   5
BRANCH   1   8
ATOM      8  C   UNL     1      31.678  -3.441  12.662  0.00  0.00    +0.000 A 
ATOM     12  C   UNL     1      31.901  -3.557  14.034  0.00  0.00    +0.000 A 
ATOM     13  C   UNL     1      32.028  -4.485  11.807  0.00  0.00    +0.000 A 
ATOM     15  C   UNL     1      32.475  -4.719  14.551  0.00  0.00    +0.000 A 
ATOM     16  C   UNL     1      32.601  -5.647  12.324  0.00  0.00    +0.000 A 
ATOM     17  C   UNL     1      32.825  -5.763  13.696  0.00  0.00    +0.000 A 
BRANCH  17   7
ATOM      7  N   UNL     1      33.405  -6.938  14.217  0.00  0.00    +0.000 N 
ATOM     20  H   UNL     1      32.837  -7.762  14.363  0.00  0.00    +0.000 HD
ATOM     21  H   UNL     1      34.390  -6.958  14.445  0.00  0.00    +0.000 HD
ENDBRANCH  17   7
ENDBRANCH   1   8
TORSDOF 3
ENDMDL
MODEL 6
REMARK VINA RESULT:      -6.7      2.893      3.467
REMARK  Name = 31771
REMARK  5 active torsions:
REMARK  status: ('A' for Active; 'I' for Inactive)
REMARK    1  A    between atoms: S_1  and  N_5
REMARK    2  A    between atoms: S_1  and  C_8
REMARK    3  A    between atoms: N_7  and  C_17
REMARK    4  A    between atoms: C_10  and  C_14
REMARK    5  A    between atoms: C_11  and  C_18
REMARK                            x       y       z     vdW  Elec       q    Type
REMARK                         _______ _______ _______ _____ _____    ______ ____
ROOT
ATOM      1  S   UNL     1      30.813  -1.756  11.636  0.00  0.00    +0.000 S 
ATOM      3  O   UNL     1      30.208  -1.556  12.947  0.00  0.00    +0.000 OA
ATOM      4  O   UNL     1      32.041  -1.041  11.312  0.00  0.00    +0.000 OA
ENDROOT
BRANCH   1   5
ATOM      2  O   UNL     1      33.099  -4.573  14.043  0.00  0.00    +0.000 OA
ATOM      5  N   UNL     1      31.053  -3.447  11.410  0.00  0.00    +0.000 N 
ATOM      6  N   UNL     1      32.220  -3.642  13.502  0.00  0.00    +0.000 NA
ATOM      9  C   UNL     1      31.944  -4.130  12.310  0.00  0.00    +0.000 A 
ATOM     10  C   UNL     1      32.577  -5.325  12.010  0.00  0.00    +0.000 A 
ATOM     11  C   UNL     1      33.303  -5.570  13.145  0.00  0.00    +0.000 A 
ATOM     14  C   UNL     1      32.508  -6.147  10.790  0.00  0.00    +0.000 C 
ATOM     18  C   UNL     1      34.216  -6.644  13.560  0.00  0.00    +0.000 C 
ATOM     19  H   UNL     1      30.927  -3.852  10.475  0.00  0.00    +0.000 HD
ENDBRANCH   1   5
BRANCH   1   8
ATOM      8  C   UNL     1      29.608  -1.373  10.431  0.00  0.00    +0.000 A 
ATOM     12  C   UNL     1      28.414  -2.093  10.384  0.00  0.00    +0.000 A 
ATOM     13  C   UNL     1      29.841  -0.348   9.514  0.00  0.00    +0.000 A 
ATOM     15  C   UNL     1      27.453  -1.788   9.421  0.00  0.00    +0.000 A 
ATOM     16  C   UNL     1      28.879  -0.043   8.551  0.00  0.00    +0.000 A 
ATOM     17  C   UNL     1      27.685  -0.763   8.504  0.00  0.00    +0.000 A 
BRANCH  17   7
ATOM      7  N   UNL     1      26.713  -0.454   7.530  0.00  0.00    +0.000 N 
ATOM     20  H   UNL     1      25.746  -0.337   7.799  0.00  0.00    +0.000 HD
ATOM     21  H   UNL     1      26.984  -0.348   6.561  0.00  0.00    +0.000 HD
ENDBRANCH  17   7
ENDBRANCH   1   8
TORSDOF 3
ENDMDL
MODEL 7
REMARK VINA RESULT:      -6.6      6.868      8.604
REMARK  Name = 31771
REMARK  5 active torsions:
REMARK  status: ('A' for Active; 'I' for Inactive)
REMARK    1  A    between atoms: S_1  and  N_5
REMARK    2  A    between atoms: S_1  and  C_8
REMARK    3  A    between atoms: N_7  and  C_17
REMARK    4  A    between atoms: C_10  and  C_14
REMARK    5  A    between atoms: C_11  and  C_18
REMARK                            x       y       z     vdW  Elec       q    Type
REMARK                         _______ _______ _______ _____ _____    ______ ____
ROOT
ATOM      1  S   UNL     1      21.670  -5.071   6.300  0.00  0.00    +0.000 S 
ATOM      3  O   UNL     1      21.618  -5.295   4.860  0.00  0.00    +0.000 OA
ATOM      4  O   UNL     1      21.214  -6.129   7.193  0.00  0.00    +0.000 OA
ENDROOT
BRANCH   1   5
ATOM      2  O   UNL     1      25.012  -7.575   7.533  0.00  0.00    +0.000 OA
ATOM      5  N   UNL     1      23.281  -4.622   6.714  0.00  0.00    +0.000 N 
ATOM      6  N   UNL     1      23.958  -6.920   6.907  0.00  0.00    +0.000 NA
ATOM      9  C   UNL     1      24.170  -5.650   7.185  0.00  0.00    +0.000 A 
ATOM     10  C   UNL     1      25.295  -5.404   7.956  0.00  0.00    +0.000 A 
ATOM     11  C   UNL     1      25.800  -6.662   8.154  0.00  0.00    +0.000 A 
ATOM     14  C   UNL     1      25.835  -4.128   8.454  0.00  0.00    +0.000 C 
ATOM     18  C   UNL     1      26.969  -7.190   8.872  0.00  0.00    +0.000 C 
ATOM     19  H   UNL     1      23.473  -3.659   7.016  0.00  0.00    +0.000 HD
ENDBRANCH   1   5
BRANCH   1   8
ATOM      8  C   UNL     1      20.763  -3.619   6.646  0.00  0.00    +0.000 A 
ATOM     12  C   UNL     1      21.281  -2.667   7.524  0.00  0.00    +0.000 A 
ATOM     13  C   UNL     1      19.522  -3.412   6.045  0.00  0.00    +0.000 A 
ATOM     15  C   UNL     1      20.557  -1.508   7.802  0.00  0.00    +0.000 A 
ATOM     16  C   UNL     1      18.798  -2.253   6.323  0.00  0.00    +0.000 A 
ATOM     17  C   UNL     1      19.315  -1.301   7.201  0.00  0.00    +0.000 A 
BRANCH  17   7
ATOM      7  N   UNL     1      18.582  -0.129   7.481  0.00  0.00    +0.000 N 
ATOM     20  H   UNL     1      17.571  -0.147   7.463  0.00  0.00    +0.000 HD
ATOM     21  H   UNL     1      19.067   0.731   7.701  0.00  0.00    +0.000 HD
ENDBRANCH  17   7
ENDBRANCH   1   8
TORSDOF 3
ENDMDL
MODEL 8
REMARK VINA RESULT:      -6.4      3.286      4.506
REMARK  Name = 31771
REMARK  5 active torsions:
REMARK  status: ('A' for Active; 'I' for Inactive)
REMARK    1  A    between atoms: S_1  and  N_5
REMARK    2  A    between atoms: S_1  and  C_8
REMARK    3  A    between atoms: N_7  and  C_17
REMARK    4  A    between atoms: C_10  and  C_14
REMARK    5  A    between atoms: C_11  and  C_18
REMARK                            x       y       z     vdW  Elec       q    Type
REMARK                         _______ _______ _______ _____ _____    ______ ____
ROOT
ATOM      1  S   UNL     1      31.437  -2.230  12.528  0.00  0.00    +0.000 S 
ATOM      3  O   UNL     1      31.909  -3.536  12.084  0.00  0.00    +0.000 OA
ATOM      4  O   UNL     1      30.675  -2.143  13.767  0.00  0.00    +0.000 OA
ENDROOT
BRANCH   1   5
ATOM      2  O   UNL     1      34.233  -1.554  15.796  0.00  0.00    +0.000 OA
ATOM      5  N   UNL     1      32.792  -1.169  12.608  0.00  0.00    +0.000 N 
ATOM      6  N   UNL     1      33.436  -2.026  14.759  0.00  0.00    +0.000 NA
ATOM      9  C   UNL     1      33.498  -1.068  13.858  0.00  0.00    +0.000 A 
ATOM     10  C   UNL     1      34.281   0.018  14.216  0.00  0.00    +0.000 A 
ATOM     11  C   UNL     1      34.729  -0.337  15.460  0.00  0.00    +0.000 A 
ATOM     14  C   UNL     1      34.574   1.254  13.471  0.00  0.00    +0.000 C 
ATOM     18  C   UNL     1      35.597   0.311  16.454  0.00  0.00    +0.000 C 
ATOM     19  H   UNL     1      32.836  -0.362  11.975  0.00  0.00    +0.000 HD
ENDBRANCH   1   5
BRANCH   1   8
ATOM      8  C   UNL     1      30.484  -1.542  11.236  0.00  0.00    +0.000 A 
ATOM     12  C   UNL     1      31.112  -0.862  10.192  0.00  0.00    +0.000 A 
ATOM     13  C   UNL     1      29.095  -1.672  11.248  0.00  0.00    +0.000 A 
ATOM     15  C   UNL     1      30.351  -0.311   9.161  0.00  0.00    +0.000 A 
ATOM     16  C   UNL     1      28.335  -1.121  10.217  0.00  0.00    +0.000 A 
ATOM     17  C   UNL     1      28.963  -0.441   9.173  0.00  0.00    +0.000 A 
BRANCH  17   7
ATOM      7  N   UNL     1      28.193   0.115   8.131  0.00  0.00    +0.000 N 
ATOM     20  H   UNL     1      28.396   1.047   7.793  0.00  0.00    +0.000 HD
ATOM     21  H   UNL     1      27.438  -0.417   7.719  0.00  0.00    +0.000 HD
ENDBRANCH  17   7
ENDBRANCH   1   8
TORSDOF 3
ENDMDL
MODEL 9
REMARK VINA RESULT:      -6.3      2.587      3.278
REMARK  Name = 31771
REMARK  5 active torsions:
REMARK  status: ('A' for Active; 'I' for Inactive)
REMARK    1  A    between atoms: S_1  and  N_5
REMARK    2  A    between atoms: S_1  and  C_8
REMARK    3  A    between atoms: N_7  and  C_17
REMARK    4  A    between atoms: C_10  and  C_14
REMARK    5  A    between atoms: C_11  and  C_18
REMARK                            x       y       z     vdW  Elec       q    Type
REMARK                         _______ _______ _______ _____ _____    ______ ____
ROOT
ATOM      1  S   UNL     1      30.578  -2.005  11.257  0.00  0.00    +0.000 S 
ATOM      3  O   UNL     1      30.853  -3.430  11.115  0.00  0.00    +0.000 OA
ATOM      4  O   UNL     1      30.169  -1.495  12.559  0.00  0.00    +0.000 OA
ENDROOT
BRANCH   1   5
ATOM      2  O   UNL     1      34.505  -1.588  13.089  0.00  0.00    +0.000 OA
ATOM      5  N   UNL     1      31.958  -1.135  10.704  0.00  0.00    +0.000 N 
ATOM      6  N   UNL     1      33.314  -1.987  12.495  0.00  0.00    +0.000 NA
ATOM      9  C   UNL     1      33.112  -1.082  11.560  0.00  0.00    +0.000 A 
ATOM     10  C   UNL     1      34.086  -0.099  11.484  0.00  0.00    +0.000 A 
ATOM     11  C   UNL     1      34.954  -0.463  12.478  0.00  0.00    +0.000 A 
ATOM     14  C   UNL     1      34.189   1.056  10.577  0.00  0.00    +0.000 C 
ATOM     18  C   UNL     1      36.212   0.099  12.990  0.00  0.00    +0.000 C 
ATOM     19  H   UNL     1      31.832  -0.365  10.035  0.00  0.00    +0.000 HD
ENDBRANCH   1   5
BRANCH   1   8
ATOM      8  C   UNL     1      29.357  -1.580  10.082  0.00  0.00    +0.000 A 
ATOM     12  C   UNL     1      28.419  -2.530   9.677  0.00  0.00    +0.000 A 
ATOM     13  C   UNL     1      29.320  -0.292   9.550  0.00  0.00    +0.000 A 
ATOM     15  C   UNL     1      27.445  -2.192   8.738  0.00  0.00    +0.000 A 
ATOM     16  C   UNL     1      28.345   0.046   8.611  0.00  0.00    +0.000 A 
ATOM     17  C   UNL     1      27.408  -0.904   8.205  0.00  0.00    +0.000 A 
BRANCH  17   7
ATOM      7  N   UNL     1      26.423  -0.561   7.256  0.00  0.00    +0.000 N 
ATOM     20  H   UNL     1      25.666  -1.202   7.057  0.00  0.00    +0.000 HD
ATOM     21  H   UNL     1      26.472   0.326   6.773  0.00  0.00    +0.000 HD
ENDBRANCH  17   7
ENDBRANCH   1   8
TORSDOF 3
ENDMDL
