MODEL 1
REMARK VINA RESULT:      -8.4      0.000      0.000
REMARK  Name = 536471
REMARK  11 active torsions:
REMARK  status: ('A' for Active; 'I' for Inactive)
REMARK    1  A    between atoms: S_1  and  N_14
REMARK    2  A    between atoms: S_1  and  C_24
REMARK    3  A    between atoms: N_12  and  C_16
REMARK    4  A    between atoms: N_12  and  C_19
REMARK    5  A    between atoms: N_13  and  C_16
REMARK    6  A    between atoms: C_16  and  C_17
REMARK    7  A    between atoms: C_16  and  C_18
REMARK    8  A    between atoms: C_20  and  C_21
REMARK    9  A    between atoms: C_21  and  C_25
REMARK   10  A    between atoms: C_25  and  C_28
REMARK   11  A    between atoms: C_31  and  C_32
REMARK                            x       y       z     vdW  Elec       q    Type
REMARK                         _______ _______ _______ _____ _____    ______ ____
ROOT
ATOM     12  N   UNL     1      30.897  -1.698  11.445  0.00  0.00    +0.000 N 
ATOM     33  H   UNL     1      30.625  -1.363  12.366  0.00  0.00    +0.000 HD
ENDROOT
BRANCH  12  19
ATOM     19  C   UNL     1      29.875  -1.701  10.509  0.00  0.00    +0.000 A 
ATOM     22  C   UNL     1      29.473  -0.506   9.913  0.00  0.00    +0.000 A 
ATOM     23  C   UNL     1      29.248  -2.899  10.164  0.00  0.00    +0.000 A 
ATOM     24  C   UNL     1      27.818  -1.707   8.625  0.00  0.00    +0.000 A 
ATOM     26  C   UNL     1      28.444  -0.509   8.970  0.00  0.00    +0.000 A 
ATOM     27  C   UNL     1      28.220  -2.902   9.222  0.00  0.00    +0.000 A 
BRANCH  24   1
ATOM      1  S   UNL     1      26.529  -1.710   7.447  0.00  0.00    +0.000 S 
ATOM      9  O   UNL     1      26.040  -0.344   7.304  0.00  0.00    +0.000 OA
ATOM     10  O   UNL     1      26.994  -2.432   6.269  0.00  0.00    +0.000 OA
BRANCH   1  14
ATOM     11  O   UNL     1      24.814  -5.823   6.800  0.00  0.00    +0.000 OA
ATOM     14  N   UNL     1      25.346  -2.645   8.246  0.00  0.00    +0.000 N 
ATOM     15  N   UNL     1      25.466  -4.597   6.824  0.00  0.00    +0.000 NA
ATOM     29  C   UNL     1      24.946  -3.949   7.870  0.00  0.00    +0.000 A 
ATOM     30  C   UNL     1      23.970  -4.710   8.537  0.00  0.00    +0.000 A 
ATOM     31  C   UNL     1      23.925  -5.879   7.825  0.00  0.00    +0.000 A 
ATOM     32  C   UNL     1      23.143  -7.115   7.950  0.00  0.00    +0.000 C 
ATOM     35  H   UNL     1      24.817  -2.203   9.009  0.00  0.00    +0.000 HD
ENDBRANCH   1  14
ENDBRANCH  24   1
ENDBRANCH  12  19
BRANCH  12  16
ATOM     16  C   UNL     1      32.277  -2.201  11.344  0.00  0.00    +0.000 C 
BRANCH  16  17
ATOM      2  F   UNL     1      31.493  -4.051  12.653  0.00  0.00    +0.000 F 
ATOM      3  F   UNL     1      31.862  -4.427  10.545  0.00  0.00    +0.000 F 
ATOM      4  F   UNL     1      33.531  -4.147  11.914  0.00  0.00    +0.000 F 
ATOM     17  C   UNL     1      32.283  -3.714  11.609  0.00  0.00    +0.000 C 
ENDBRANCH  16  17
BRANCH  16  18
ATOM      5  F   UNL     1      32.501  -0.652   9.522  0.00  0.00    +0.000 F 
ATOM      6  F   UNL     1      32.059  -2.727   9.023  0.00  0.00    +0.000 F 
ATOM      7  F   UNL     1      34.043  -2.172   9.735  0.00  0.00    +0.000 F 
ATOM     18  C   UNL     1      32.721  -1.932   9.895  0.00  0.00    +0.000 C 
ENDBRANCH  16  18
BRANCH  16  13
ATOM      8  O   UNL     1      31.821  -1.380  14.190  0.00  0.00    +0.000 OA
ATOM     13  N   UNL     1      33.125  -1.425  12.258  0.00  0.00    +0.000 N 
ATOM     20  C   UNL     1      32.838  -1.085  13.572  0.00  0.00    +0.000 C 
ATOM     34  H   UNL     1      34.064  -1.218  11.936  0.00  0.00    +0.000 HD
BRANCH  20  21
ATOM     21  C   UNL     1      33.956  -0.251  14.179  0.00  0.00    +0.000 C 
BRANCH  21  25
ATOM     25  C   UNL     1      33.462   0.919  15.027  0.00  0.00    +0.000 C 
ATOM     28  C   UNL     1      34.338   1.167  16.246  0.00  0.00    +0.000 C 
ENDBRANCH  21  25
ENDBRANCH  20  21
ENDBRANCH  16  13
ENDBRANCH  12  16
TORSDOF 9
ENDMDL
MODEL 2
REMARK VINA RESULT:      -8.3      1.645      2.974
REMARK  Name = 536471
REMARK  11 active torsions:
REMARK  status: ('A' for Active; 'I' for Inactive)
REMARK    1  A    between atoms: S_1  and  N_14
REMARK    2  A    between atoms: S_1  and  C_24
REMARK    3  A    between atoms: N_12  and  C_16
REMARK    4  A    between atoms: N_12  and  C_19
REMARK    5  A    between atoms: N_13  and  C_16
REMARK    6  A    between atoms: C_16  and  C_17
REMARK    7  A    between atoms: C_16  and  C_18
REMARK    8  A    between atoms: C_20  and  C_21
REMARK    9  A    between atoms: C_21  and  C_25
REMARK   10  A    between atoms: C_25  and  C_28
REMARK   11  A    between atoms: C_31  and  C_32
REMARK                            x       y       z     vdW  Elec       q    Type
REMARK                         _______ _______ _______ _____ _____    ______ ____
ROOT
ATOM     12  N   UNL     1      31.257  -1.215  11.158  0.00  0.00    +0.000 N 
ATOM     33  H   UNL     1      31.113  -0.612  11.965  0.00  0.00    +0.000 HD
ENDROOT
BRANCH  12  19
ATOM     19  C   UNL     1      30.157  -1.330  10.323  0.00  0.00    +0.000 A 
ATOM     22  C   UNL     1      29.374  -2.483  10.358  0.00  0.00    +0.000 A 
ATOM     23  C   UNL     1      29.834  -0.294   9.447  0.00  0.00    +0.000 A 
ATOM     24  C   UNL     1      27.943  -1.563   8.642  0.00  0.00    +0.000 A 
ATOM     26  C   UNL     1      28.266  -2.600   9.517  0.00  0.00    +0.000 A 
ATOM     27  C   UNL     1      28.727  -0.410   8.606  0.00  0.00    +0.000 A 
BRANCH  24   1
ATOM      1  S   UNL     1      26.558  -1.710   7.589  0.00  0.00    +0.000 S 
ATOM      9  O   UNL     1      25.901  -0.410   7.517  0.00  0.00    +0.000 OA
ATOM     10  O   UNL     1      26.992  -2.363   6.359  0.00  0.00    +0.000 OA
BRANCH   1  14
ATOM     11  O   UNL     1      24.837  -5.791   6.775  0.00  0.00    +0.000 OA
ATOM     14  N   UNL     1      25.574  -2.785   8.477  0.00  0.00    +0.000 N 
ATOM     15  N   UNL     1      25.455  -4.548   6.826  0.00  0.00    +0.000 NA
ATOM     29  C   UNL     1      25.136  -4.052   8.025  0.00  0.00    +0.000 A 
ATOM     30  C   UNL     1      24.326  -4.930   8.766  0.00  0.00    +0.000 A 
ATOM     31  C   UNL     1      24.167  -6.007   7.935  0.00  0.00    +0.000 A 
ATOM     32  C   UNL     1      23.450  -7.283   8.053  0.00  0.00    +0.000 C 
ATOM     35  H   UNL     1      25.195  -2.461   9.376  0.00  0.00    +0.000 HD
ENDBRANCH   1  14
ENDBRANCH  24   1
ENDBRANCH  12  19
BRANCH  12  16
ATOM     16  C   UNL     1      32.556  -1.907  11.117  0.00  0.00    +0.000 C 
BRANCH  16  17
ATOM      2  F   UNL     1      32.767  -0.994   8.909  0.00  0.00    +0.000 F 
ATOM      3  F   UNL     1      34.278  -2.428   9.526  0.00  0.00    +0.000 F 
ATOM      4  F   UNL     1      32.257  -3.096   9.073  0.00  0.00    +0.000 F 
ATOM     17  C   UNL     1      32.975  -2.104   9.652  0.00  0.00    +0.000 C 
ENDBRANCH  16  17
BRANCH  16  18
ATOM      5  F   UNL     1      33.029  -0.380  12.910  0.00  0.00    +0.000 F 
ATOM      6  F   UNL     1      33.972   0.014  10.986  0.00  0.00    +0.000 F 
ATOM      7  F   UNL     1      34.659  -1.646  12.221  0.00  0.00    +0.000 F 
ATOM     18  C   UNL     1      33.558  -0.971  11.816  0.00  0.00    +0.000 C 
ENDBRANCH  16  18
BRANCH  16  13
ATOM      8  O   UNL     1      31.099  -2.491  13.670  0.00  0.00    +0.000 OA
ATOM     13  N   UNL     1      32.446  -3.153  11.885  0.00  0.00    +0.000 N 
ATOM     20  C   UNL     1      31.746  -3.342  13.069  0.00  0.00    +0.000 C 
ATOM     34  H   UNL     1      32.820  -3.987  11.448  0.00  0.00    +0.000 HD
BRANCH  20  21
ATOM     21  C   UNL     1      31.896  -4.769  13.572  0.00  0.00    +0.000 C 
BRANCH  21  25
ATOM     25  C   UNL     1      33.062  -5.526  12.939  0.00  0.00    +0.000 C 
ATOM     28  C   UNL     1      32.601  -6.705  12.093  0.00  0.00    +0.000 C 
ENDBRANCH  21  25
ENDBRANCH  20  21
ENDBRANCH  16  13
ENDBRANCH  12  16
TORSDOF 9
ENDMDL
MODEL 3
REMARK VINA RESULT:      -7.5      2.880      4.001
REMARK  Name = 536471
REMARK  11 active torsions:
REMARK  status: ('A' for Active; 'I' for Inactive)
REMARK    1  A    between atoms: S_1  and  N_14
REMARK    2  A    between atoms: S_1  and  C_24
REMARK    3  A    between atoms: N_12  and  C_16
REMARK    4  A    between atoms: N_12  and  C_19
REMARK    5  A    between atoms: N_13  and  C_16
REMARK    6  A    between atoms: C_16  and  C_17
REMARK    7  A    between atoms: C_16  and  C_18
REMARK    8  A    between atoms: C_20  and  C_21
REMARK    9  A    between atoms: C_21  and  C_25
REMARK   10  A    between atoms: C_25  and  C_28
REMARK   11  A    between atoms: C_31  and  C_32
REMARK                            x       y       z     vdW  Elec       q    Type
REMARK                         _______ _______ _______ _____ _____    ______ ____
ROOT
ATOM     12  N   UNL     1      33.025  -3.116  11.260  0.00  0.00    +0.000 N 
ATOM     33  H   UNL     1      33.377  -2.877  12.183  0.00  0.00    +0.000 HD
ENDROOT
BRANCH  12  19
ATOM     19  C   UNL     1      32.077  -2.236  10.761  0.00  0.00    +0.000 A 
ATOM     22  C   UNL     1      32.438  -1.297   9.796  0.00  0.00    +0.000 A 
ATOM     23  C   UNL     1      30.762  -2.290  11.225  0.00  0.00    +0.000 A 
ATOM     24  C   UNL     1      30.169  -0.466   9.757  0.00  0.00    +0.000 A 
ATOM     26  C   UNL     1      31.484  -0.411   9.294  0.00  0.00    +0.000 A 
ATOM     27  C   UNL     1      29.808  -1.406  10.723  0.00  0.00    +0.000 A 
BRANCH  24   1
ATOM      1  S   UNL     1      28.976   0.643   9.129  0.00  0.00    +0.000 S 
ATOM      9  O   UNL     1      27.979   0.875  10.168  0.00  0.00    +0.000 OA
ATOM     10  O   UNL     1      29.677   1.779   8.543  0.00  0.00    +0.000 OA
BRANCH   1  14
ATOM     11  O   UNL     1      26.136  -2.851   9.033  0.00  0.00    +0.000 OA
ATOM     14  N   UNL     1      28.276  -0.288   7.881  0.00  0.00    +0.000 N 
ATOM     15  N   UNL     1      26.992  -1.786   9.280  0.00  0.00    +0.000 NA
ATOM     29  C   UNL     1      27.386  -1.370   8.072  0.00  0.00    +0.000 A 
ATOM     30  C   UNL     1      26.815  -2.130   7.036  0.00  0.00    +0.000 A 
ATOM     31  C   UNL     1      26.039  -3.047   7.693  0.00  0.00    +0.000 A 
ATOM     32  C   UNL     1      25.166  -4.142   7.251  0.00  0.00    +0.000 C 
ATOM     35  H   UNL     1      28.586  -0.111   6.916  0.00  0.00    +0.000 HD
ENDBRANCH   1  14
ENDBRANCH  24   1
ENDBRANCH  12  19
BRANCH  12  16
ATOM     16  C   UNL     1      33.518  -4.390  10.711  0.00  0.00    +0.000 C 
BRANCH  16  17
ATOM      2  F   UNL     1      31.304  -4.903   9.944  0.00  0.00    +0.000 F 
ATOM      3  F   UNL     1      32.657  -4.001   8.503  0.00  0.00    +0.000 F 
ATOM      4  F   UNL     1      32.938  -6.068   9.120  0.00  0.00    +0.000 F 
ATOM     17  C   UNL     1      32.599  -4.833   9.562  0.00  0.00    +0.000 C 
ENDBRANCH  16  17
BRANCH  16  18
ATOM      5  F   UNL     1      35.346  -5.051   9.299  0.00  0.00    +0.000 F 
ATOM      6  F   UNL     1      35.838  -4.021  11.155  0.00  0.00    +0.000 F 
ATOM      7  F   UNL     1      34.956  -2.920   9.494  0.00  0.00    +0.000 F 
ATOM     18  C   UNL     1      34.925  -4.097  10.158  0.00  0.00    +0.000 C 
ENDBRANCH  16  18
BRANCH  16  13
ATOM      8  O   UNL     1      31.692  -4.907  13.030  0.00  0.00    +0.000 OA
ATOM     13  N   UNL     1      33.625  -5.361  11.806  0.00  0.00    +0.000 N 
ATOM     20  C   UNL     1      32.729  -5.538  12.851  0.00  0.00    +0.000 C 
ATOM     34  H   UNL     1      34.365  -6.049  11.729  0.00  0.00    +0.000 HD
BRANCH  20  21
ATOM     21  C   UNL     1      33.205  -6.626  13.802  0.00  0.00    +0.000 C 
BRANCH  21  25
ATOM     25  C   UNL     1      33.131  -6.231  15.276  0.00  0.00    +0.000 C 
ATOM     28  C   UNL     1      34.261  -6.834  16.098  0.00  0.00    +0.000 C 
ENDBRANCH  21  25
ENDBRANCH  20  21
ENDBRANCH  16  13
ENDBRANCH  12  16
TORSDOF 9
ENDMDL
MODEL 4
REMARK VINA RESULT:      -7.3     17.822     20.469
REMARK  Name = 536471
REMARK  11 active torsions:
REMARK  status: ('A' for Active; 'I' for Inactive)
REMARK    1  A    between atoms: S_1  and  N_14
REMARK    2  A    between atoms: S_1  and  C_24
REMARK    3  A    between atoms: N_12  and  C_16
REMARK    4  A    between atoms: N_12  and  C_19
REMARK    5  A    between atoms: N_13  and  C_16
REMARK    6  A    between atoms: C_16  and  C_17
REMARK    7  A    between atoms: C_16  and  C_18
REMARK    8  A    between atoms: C_20  and  C_21
REMARK    9  A    between atoms: C_21  and  C_25
REMARK   10  A    between atoms: C_25  and  C_28
REMARK   11  A    between atoms: C_31  and  C_32
REMARK                            x       y       z     vdW  Elec       q    Type
REMARK                         _______ _______ _______ _____ _____    ______ ____
ROOT
ATOM     12  N   UNL     1      16.304  -9.779  24.416  0.00  0.00    +0.000 N 
ATOM     33  H   UNL     1      16.005  -9.860  25.384  0.00  0.00    +0.000 HD
ENDROOT
BRANCH  12  19
ATOM     19  C   UNL     1      17.679  -9.748  24.240  0.00  0.00    +0.000 A 
ATOM     22  C   UNL     1      18.350  -8.526  24.215  0.00  0.00    +0.000 A 
ATOM     23  C   UNL     1      18.391 -10.938  24.088  0.00  0.00    +0.000 A 
ATOM     24  C   UNL     1      20.446  -9.684  23.887  0.00  0.00    +0.000 A 
ATOM     26  C   UNL     1      19.734  -8.494  24.038  0.00  0.00    +0.000 A 
ATOM     27  C   UNL     1      19.773 -10.907  23.912  0.00  0.00    +0.000 A 
BRANCH  24   1
ATOM      1  S   UNL     1      22.177  -9.644  23.664  0.00  0.00    +0.000 S 
ATOM      9  O   UNL     1      22.588  -8.250  23.542  0.00  0.00    +0.000 OA
ATOM     10  O   UNL     1      22.785 -10.484  24.688  0.00  0.00    +0.000 OA
BRANCH   1  14
ATOM     11  O   UNL     1      20.299  -9.018  19.619  0.00  0.00    +0.000 OA
ATOM     14  N   UNL     1      22.337 -10.408  22.146  0.00  0.00    +0.000 N 
ATOM     15  N   UNL     1      20.753  -9.043  20.931  0.00  0.00    +0.000 NA
ATOM     29  C   UNL     1      21.636 -10.046  20.972  0.00  0.00    +0.000 A 
ATOM     30  C   UNL     1      21.777 -10.683  19.727  0.00  0.00    +0.000 A 
ATOM     31  C   UNL     1      20.915  -9.999  18.911  0.00  0.00    +0.000 A 
ATOM     32  C   UNL     1      20.549 -10.116  17.494  0.00  0.00    +0.000 C 
ATOM     35  H   UNL     1      22.922 -11.253  22.091  0.00  0.00    +0.000 HD
ENDBRANCH   1  14
ENDBRANCH  24   1
ENDBRANCH  12  19
BRANCH  12  16
ATOM     16  C   UNL     1      15.219  -9.607  23.436  0.00  0.00    +0.000 C 
BRANCH  16  17
ATOM      2  F   UNL     1      14.141  -7.846  22.216  0.00  0.00    +0.000 F 
ATOM      3  F   UNL     1      15.490  -7.251  23.812  0.00  0.00    +0.000 F 
ATOM      4  F   UNL     1      16.283  -8.069  21.958  0.00  0.00    +0.000 F 
ATOM     17  C   UNL     1      15.280  -8.183  22.861  0.00  0.00    +0.000 C 
ENDBRANCH  16  17
BRANCH  16  18
ATOM      5  F   UNL     1      16.609 -10.323  21.612  0.00  0.00    +0.000 F 
ATOM      6  F   UNL     1      14.467 -10.679  21.436  0.00  0.00    +0.000 F 
ATOM      7  F   UNL     1      15.664 -11.871  22.814  0.00  0.00    +0.000 F 
ATOM     18  C   UNL     1      15.495 -10.625  22.315  0.00  0.00    +0.000 C 
ENDBRANCH  16  18
BRANCH  16  13
ATOM      8  O   UNL     1      14.192  -8.916  26.165  0.00  0.00    +0.000 OA
ATOM     13  N   UNL     1      13.946  -9.942  24.085  0.00  0.00    +0.000 N 
ATOM     20  C   UNL     1      13.544  -9.580  25.363  0.00  0.00    +0.000 C 
ATOM     34  H   UNL     1      13.243 -10.379  23.501  0.00  0.00    +0.000 HD
BRANCH  20  21
ATOM     21  C   UNL     1      12.166 -10.143  25.683  0.00  0.00    +0.000 C 
BRANCH  21  25
ATOM     25  C   UNL     1      11.315  -9.226  26.560  0.00  0.00    +0.000 C 
ATOM     28  C   UNL     1       9.837  -9.583  26.513  0.00  0.00    +0.000 C 
ENDBRANCH  21  25
ENDBRANCH  20  21
ENDBRANCH  16  13
ENDBRANCH  12  16
TORSDOF 9
ENDMDL
MODEL 5
REMARK VINA RESULT:      -7.1      4.963      9.120
REMARK  Name = 536471
REMARK  11 active torsions:
REMARK  status: ('A' for Active; 'I' for Inactive)
REMARK    1  A    between atoms: S_1  and  N_14
REMARK    2  A    between atoms: S_1  and  C_24
REMARK    3  A    between atoms: N_12  and  C_16
REMARK    4  A    between atoms: N_12  and  C_19
REMARK    5  A    between atoms: N_13  and  C_16
REMARK    6  A    between atoms: C_16  and  C_17
REMARK    7  A    between atoms: C_16  and  C_18
REMARK    8  A    between atoms: C_20  and  C_21
REMARK    9  A    between atoms: C_21  and  C_25
REMARK   10  A    between atoms: C_25  and  C_28
REMARK   11  A    between atoms: C_31  and  C_32
REMARK                            x       y       z     vdW  Elec       q    Type
REMARK                         _______ _______ _______ _____ _____    ______ ____
ROOT
ATOM     12  N   UNL     1      33.335  -2.418  11.341  0.00  0.00    +0.000 N 
ATOM     33  H   UNL     1      34.137  -3.013  11.151  0.00  0.00    +0.000 HD
ENDROOT
BRANCH  12  19
ATOM     19  C   UNL     1      33.447  -1.127  10.848  0.00  0.00    +0.000 A 
ATOM     22  C   UNL     1      32.679  -0.730   9.754  0.00  0.00    +0.000 A 
ATOM     23  C   UNL     1      34.329  -0.226  11.445  0.00  0.00    +0.000 A 
ATOM     24  C   UNL     1      33.673   1.470   9.855  0.00  0.00    +0.000 A 
ATOM     26  C   UNL     1      32.792   0.569   9.257  0.00  0.00    +0.000 A 
ATOM     27  C   UNL     1      34.442   1.072  10.949  0.00  0.00    +0.000 A 
BRANCH  24   1
ATOM      1  S   UNL     1      33.816   3.095   9.232  0.00  0.00    +0.000 S 
ATOM      9  O   UNL     1      34.066   3.012   7.798  0.00  0.00    +0.000 OA
ATOM     10  O   UNL     1      32.679   3.868   9.718  0.00  0.00    +0.000 OA
BRANCH   1  14
ATOM     11  O   UNL     1      36.336   6.818   8.964  0.00  0.00    +0.000 OA
ATOM     14  N   UNL     1      35.234   3.631  10.016  0.00  0.00    +0.000 N 
ATOM     15  N   UNL     1      35.434   5.763   8.893  0.00  0.00    +0.000 NA
ATOM     29  C   UNL     1      35.880   4.867   9.778  0.00  0.00    +0.000 A 
ATOM     30  C   UNL     1      37.048   5.299  10.431  0.00  0.00    +0.000 A 
ATOM     31  C   UNL     1      37.292   6.530   9.883  0.00  0.00    +0.000 A 
ATOM     32  C   UNL     1      38.333   7.544  10.088  0.00  0.00    +0.000 C 
ATOM     35  H   UNL     1      35.712   2.976  10.649  0.00  0.00    +0.000 HD
ENDBRANCH   1  14
ENDBRANCH  24   1
ENDBRANCH  12  19
BRANCH  12  16
ATOM     16  C   UNL     1      32.290  -3.023  12.183  0.00  0.00    +0.000 C 
BRANCH  16  17
ATOM      2  F   UNL     1      33.558  -4.647  13.411  0.00  0.00    +0.000 F 
ATOM      3  F   UNL     1      31.560  -5.230  12.788  0.00  0.00    +0.000 F 
ATOM      4  F   UNL     1      33.159  -5.068  11.320  0.00  0.00    +0.000 F 
ATOM     17  C   UNL     1      32.636  -4.499  12.433  0.00  0.00    +0.000 C 
ENDBRANCH  16  17
BRANCH  16  18
ATOM      5  F   UNL     1      31.700  -1.059  13.433  0.00  0.00    +0.000 F 
ATOM      6  F   UNL     1      33.593  -2.022  13.919  0.00  0.00    +0.000 F 
ATOM      7  F   UNL     1      31.710  -2.955  14.500  0.00  0.00    +0.000 F 
ATOM     18  C   UNL     1      32.321  -2.255  13.517  0.00  0.00    +0.000 C 
ENDBRANCH  16  18
BRANCH  16  13
ATOM      8  O   UNL     1      31.288  -3.901   9.499  0.00  0.00    +0.000 OA
ATOM     13  N   UNL     1      30.988  -2.810  11.538  0.00  0.00    +0.000 N 
ATOM     20  C   UNL     1      30.601  -3.253  10.281  0.00  0.00    +0.000 C 
ATOM     34  H   UNL     1      30.261  -2.401  12.113  0.00  0.00    +0.000 HD
BRANCH  20  21
ATOM     21  C   UNL     1      29.183  -2.807   9.956  0.00  0.00    +0.000 C 
BRANCH  21  25
ATOM     25  C   UNL     1      28.692  -1.643  10.814  0.00  0.00    +0.000 C 
ATOM     28  C   UNL     1      28.684  -0.323  10.056  0.00  0.00    +0.000 C 
ENDBRANCH  21  25
ENDBRANCH  20  21
ENDBRANCH  16  13
ENDBRANCH  12  16
TORSDOF 9
ENDMDL
MODEL 6
REMARK VINA RESULT:      -7.0     17.705     20.278
REMARK  Name = 536471
REMARK  11 active torsions:
REMARK  status: ('A' for Active; 'I' for Inactive)
REMARK    1  A    between atoms: S_1  and  N_14
REMARK    2  A    between atoms: S_1  and  C_24
REMARK    3  A    between atoms: N_12  and  C_16
REMARK    4  A    between atoms: N_12  and  C_19
REMARK    5  A    between atoms: N_13  and  C_16
REMARK    6  A    between atoms: C_16  and  C_17
REMARK    7  A    between atoms: C_16  and  C_18
REMARK    8  A    between atoms: C_20  and  C_21
REMARK    9  A    between atoms: C_21  and  C_25
REMARK   10  A    between atoms: C_25  and  C_28
REMARK   11  A    between atoms: C_31  and  C_32
REMARK                            x       y       z     vdW  Elec       q    Type
REMARK                         _______ _______ _______ _____ _____    ______ ____
ROOT
ATOM     12  N   UNL     1      16.655 -10.437  23.075  0.00  0.00    +0.000 N 
ATOM     33  H   UNL     1      16.351 -11.380  23.307  0.00  0.00    +0.000 HD
ENDROOT
BRANCH  12  19
ATOM     19  C   UNL     1      18.022 -10.305  22.885  0.00  0.00    +0.000 A 
ATOM     22  C   UNL     1      18.883 -10.328  23.981  0.00  0.00    +0.000 A 
ATOM     23  C   UNL     1      18.536 -10.148  21.597  0.00  0.00    +0.000 A 
ATOM     24  C   UNL     1      20.773 -10.039  22.502  0.00  0.00    +0.000 A 
ATOM     26  C   UNL     1      20.259 -10.195  23.790  0.00  0.00    +0.000 A 
ATOM     27  C   UNL     1      19.910 -10.015  21.406  0.00  0.00    +0.000 A 
BRANCH  24   1
ATOM      1  S   UNL     1      22.494  -9.871  22.264  0.00  0.00    +0.000 S 
ATOM      9  O   UNL     1      22.753  -9.838  20.829  0.00  0.00    +0.000 OA
ATOM     10  O   UNL     1      22.963  -8.775  23.102  0.00  0.00    +0.000 OA
BRANCH   1  14
ATOM     11  O   UNL     1      22.757 -14.081  20.685  0.00  0.00    +0.000 OA
ATOM     14  N   UNL     1      23.066 -11.348  22.901  0.00  0.00    +0.000 N 
ATOM     15  N   UNL     1      22.587 -12.734  20.978  0.00  0.00    +0.000 NA
ATOM     29  C   UNL     1      23.057 -12.588  22.221  0.00  0.00    +0.000 A 
ATOM     30  C   UNL     1      23.533 -13.798  22.756  0.00  0.00    +0.000 A 
ATOM     31  C   UNL     1      23.321 -14.705  21.751  0.00  0.00    +0.000 A 
ATOM     32  C   UNL     1      23.573 -16.144  21.612  0.00  0.00    +0.000 C 
ATOM     35  H   UNL     1      23.364 -11.365  23.885  0.00  0.00    +0.000 HD
ENDBRANCH   1  14
ENDBRANCH  24   1
ENDBRANCH  12  19
BRANCH  12  16
ATOM     16  C   UNL     1      15.598  -9.413  23.099  0.00  0.00    +0.000 C 
BRANCH  16  17
ATOM      2  F   UNL     1      16.891  -7.946  24.487  0.00  0.00    +0.000 F 
ATOM      3  F   UNL     1      17.125  -7.722  22.339  0.00  0.00    +0.000 F 
ATOM      4  F   UNL     1      15.297  -7.058  23.315  0.00  0.00    +0.000 F 
ATOM     17  C   UNL     1      16.239  -8.032  23.307  0.00  0.00    +0.000 C 
ENDBRANCH  16  17
BRANCH  16  18
ATOM      5  F   UNL     1      13.690  -8.922  21.726  0.00  0.00    +0.000 F 
ATOM      6  F   UNL     1      14.806 -10.738  21.274  0.00  0.00    +0.000 F 
ATOM      7  F   UNL     1      15.651  -8.787  20.793  0.00  0.00    +0.000 F 
ATOM     18  C   UNL     1      14.927  -9.464  21.714  0.00  0.00    +0.000 C 
ENDBRANCH  16  18
BRANCH  16  13
ATOM      8  O   UNL     1      15.963 -10.788  25.736  0.00  0.00    +0.000 OA
ATOM     13  N   UNL     1      14.613  -9.781  24.123  0.00  0.00    +0.000 N 
ATOM     20  C   UNL     1      14.866 -10.422  25.328  0.00  0.00    +0.000 C 
ATOM     34  H   UNL     1      13.672  -9.428  23.992  0.00  0.00    +0.000 HD
BRANCH  20  21
ATOM     21  C   UNL     1      13.579 -10.654  26.105  0.00  0.00    +0.000 C 
BRANCH  21  25
ATOM     25  C   UNL     1      12.328 -10.144  25.393  0.00  0.00    +0.000 C 
ATOM     28  C   UNL     1      11.451  -9.289  26.295  0.00  0.00    +0.000 C 
ENDBRANCH  21  25
ENDBRANCH  20  21
ENDBRANCH  16  13
ENDBRANCH  12  16
TORSDOF 9
ENDMDL
MODEL 7
REMARK VINA RESULT:      -6.9      4.173     10.061
REMARK  Name = 536471
REMARK  11 active torsions:
REMARK  status: ('A' for Active; 'I' for Inactive)
REMARK    1  A    between atoms: S_1  and  N_14
REMARK    2  A    between atoms: S_1  and  C_24
REMARK    3  A    between atoms: N_12  and  C_16
REMARK    4  A    between atoms: N_12  and  C_19
REMARK    5  A    between atoms: N_13  and  C_16
REMARK    6  A    between atoms: C_16  and  C_17
REMARK    7  A    between atoms: C_16  and  C_18
REMARK    8  A    between atoms: C_20  and  C_21
REMARK    9  A    between atoms: C_21  and  C_25
REMARK   10  A    between atoms: C_25  and  C_28
REMARK   11  A    between atoms: C_31  and  C_32
REMARK                            x       y       z     vdW  Elec       q    Type
REMARK                         _______ _______ _______ _____ _____    ______ ____
ROOT
ATOM     12  N   UNL     1      33.267  -2.560  11.440  0.00  0.00    +0.000 N 
ATOM     33  H   UNL     1      33.795  -2.310  10.608  0.00  0.00    +0.000 HD
ENDROOT
BRANCH  12  19
ATOM     19  C   UNL     1      33.702  -1.946  12.603  0.00  0.00    +0.000 A 
ATOM     22  C   UNL     1      34.955  -2.257  13.129  0.00  0.00    +0.000 A 
ATOM     23  C   UNL     1      32.886  -1.016  13.249  0.00  0.00    +0.000 A 
ATOM     24  C   UNL     1      34.578  -0.709  14.946  0.00  0.00    +0.000 A 
ATOM     26  C   UNL     1      35.394  -1.639  14.301  0.00  0.00    +0.000 A 
ATOM     27  C   UNL     1      33.323  -0.398  14.420  0.00  0.00    +0.000 A 
BRANCH  24   1
ATOM      1  S   UNL     1      35.126   0.063  16.412  0.00  0.00    +0.000 S 
ATOM      9  O   UNL     1      36.404   0.709  16.137  0.00  0.00    +0.000 OA
ATOM     10  O   UNL     1      34.024   0.854  16.947  0.00  0.00    +0.000 OA
BRANCH   1  14
ATOM     11  O   UNL     1      35.676  -0.476  20.849  0.00  0.00    +0.000 OA
ATOM     14  N   UNL     1      35.389  -1.286  17.424  0.00  0.00    +0.000 N 
ATOM     15  N   UNL     1      35.488  -0.097  19.527  0.00  0.00    +0.000 NA
ATOM     29  C   UNL     1      35.538  -1.236  18.829  0.00  0.00    +0.000 A 
ATOM     30  C   UNL     1      35.753  -2.355  19.653  0.00  0.00    +0.000 A 
ATOM     31  C   UNL     1      35.833  -1.823  20.912  0.00  0.00    +0.000 A 
ATOM     32  C   UNL     1      36.044  -2.398  22.246  0.00  0.00    +0.000 C 
ATOM     35  H   UNL     1      35.537  -2.202  16.978  0.00  0.00    +0.000 HD
ENDBRANCH   1  14
ENDBRANCH  24   1
ENDBRANCH  12  19
BRANCH  12  16
ATOM     16  C   UNL     1      32.235  -3.591  11.241  0.00  0.00    +0.000 C 
BRANCH  16  17
ATOM      2  F   UNL     1      33.134  -3.473   9.020  0.00  0.00    +0.000 F 
ATOM      3  F   UNL     1      33.133  -5.424   9.975  0.00  0.00    +0.000 F 
ATOM      4  F   UNL     1      31.266  -4.546   9.283  0.00  0.00    +0.000 F 
ATOM     17  C   UNL     1      32.451  -4.265   9.877  0.00  0.00    +0.000 C 
ENDBRANCH  16  17
BRANCH  16  18
ATOM      5  F   UNL     1      33.746  -4.959  12.512  0.00  0.00    +0.000 F 
ATOM      6  F   UNL     1      31.761  -5.766  12.114  0.00  0.00    +0.000 F 
ATOM      7  F   UNL     1      32.016  -4.149  13.554  0.00  0.00    +0.000 F 
ATOM     18  C   UNL     1      32.445  -4.624  12.362  0.00  0.00    +0.000 C 
ENDBRANCH  16  18
BRANCH  16  13
ATOM      8  O   UNL     1      31.083  -1.128   9.982  0.00  0.00    +0.000 OA
ATOM     13  N   UNL     1      30.915  -2.969  11.403  0.00  0.00    +0.000 N 
ATOM     20  C   UNL     1      30.456  -1.818  10.779  0.00  0.00    +0.000 C 
ATOM     34  H   UNL     1      30.229  -3.496  11.932  0.00  0.00    +0.000 HD
BRANCH  20  21
ATOM     21  C   UNL     1      29.042  -1.478  11.228  0.00  0.00    +0.000 C 
BRANCH  21  25
ATOM     25  C   UNL     1      28.017  -1.489  10.096  0.00  0.00    +0.000 C 
ATOM     28  C   UNL     1      27.989  -2.814   9.348  0.00  0.00    +0.000 C 
ENDBRANCH  21  25
ENDBRANCH  20  21
ENDBRANCH  16  13
ENDBRANCH  12  16
TORSDOF 9
ENDMDL
MODEL 8
REMARK VINA RESULT:      -6.7      4.016     10.121
REMARK  Name = 536471
REMARK  11 active torsions:
REMARK  status: ('A' for Active; 'I' for Inactive)
REMARK    1  A    between atoms: S_1  and  N_14
REMARK    2  A    between atoms: S_1  and  C_24
REMARK    3  A    between atoms: N_12  and  C_16
REMARK    4  A    between atoms: N_12  and  C_19
REMARK    5  A    between atoms: N_13  and  C_16
REMARK    6  A    between atoms: C_16  and  C_17
REMARK    7  A    between atoms: C_16  and  C_18
REMARK    8  A    between atoms: C_20  and  C_21
REMARK    9  A    between atoms: C_21  and  C_25
REMARK   10  A    between atoms: C_25  and  C_28
REMARK   11  A    between atoms: C_31  and  C_32
REMARK                            x       y       z     vdW  Elec       q    Type
REMARK                         _______ _______ _______ _____ _____    ______ ____
ROOT
ATOM     12  N   UNL     1      31.701  -2.933  12.150  0.00  0.00    +0.000 N 
ATOM     33  H   UNL     1      30.926  -3.439  12.571  0.00  0.00    +0.000 HD
ENDROOT
BRANCH  12  19
ATOM     19  C   UNL     1      32.578  -2.365  13.061  0.00  0.00    +0.000 A 
ATOM     22  C   UNL     1      33.648  -3.110  13.557  0.00  0.00    +0.000 A 
ATOM     23  C   UNL     1      32.391  -1.048  13.482  0.00  0.00    +0.000 A 
ATOM     24  C   UNL     1      34.344  -1.221  14.894  0.00  0.00    +0.000 A 
ATOM     26  C   UNL     1      34.531  -2.538  14.474  0.00  0.00    +0.000 A 
ATOM     27  C   UNL     1      33.273  -0.476  14.398  0.00  0.00    +0.000 A 
BRANCH  24   1
ATOM      1  S   UNL     1      35.447  -0.507  16.042  0.00  0.00    +0.000 S 
ATOM      9  O   UNL     1      36.801  -0.647  15.520  0.00  0.00    +0.000 OA
ATOM     10  O   UNL     1      34.946   0.818  16.388  0.00  0.00    +0.000 OA
BRANCH   1  14
ATOM     11  O   UNL     1      36.293  -0.133  20.449  0.00  0.00    +0.000 OA
ATOM     14  N   UNL     1      35.255  -1.545  17.383  0.00  0.00    +0.000 N 
ATOM     15  N   UNL     1      36.109  -0.045  19.076  0.00  0.00    +0.000 NA
ATOM     29  C   UNL     1      35.593  -1.224  18.718  0.00  0.00    +0.000 A 
ATOM     30  C   UNL     1      35.429  -2.088  19.815  0.00  0.00    +0.000 A 
ATOM     31  C   UNL     1      35.884  -1.355  20.879  0.00  0.00    +0.000 A 
ATOM     32  C   UNL     1      36.008  -1.621  22.317  0.00  0.00    +0.000 C 
ATOM     35  H   UNL     1      34.952  -2.512  17.204  0.00  0.00    +0.000 HD
ENDBRANCH   1  14
ENDBRANCH  24   1
ENDBRANCH  12  19
BRANCH  12  16
ATOM     16  C   UNL     1      31.659  -2.829  10.682  0.00  0.00    +0.000 C 
BRANCH  16  17
ATOM      2  F   UNL     1      32.774  -1.696   8.886  0.00  0.00    +0.000 F 
ATOM      3  F   UNL     1      32.202  -0.491  10.600  0.00  0.00    +0.000 F 
ATOM      4  F   UNL     1      33.853  -1.900  10.757  0.00  0.00    +0.000 F 
ATOM     17  C   UNL     1      32.619  -1.718  10.228  0.00  0.00    +0.000 C 
ENDBRANCH  16  17
BRANCH  16  18
ATOM      5  F   UNL     1      31.535  -5.227  10.742  0.00  0.00    +0.000 F 
ATOM      6  F   UNL     1      33.484  -4.337  10.347  0.00  0.00    +0.000 F 
ATOM      7  F   UNL     1      31.932  -4.296   8.816  0.00  0.00    +0.000 F 
ATOM     18  C   UNL     1      32.154  -4.184  10.146  0.00  0.00    +0.000 C 
ENDBRANCH  16  18
BRANCH  16  13
ATOM      8  O   UNL     1      29.459  -1.255  11.971  0.00  0.00    +0.000 OA
ATOM     13  N   UNL     1      30.266  -2.628  10.268  0.00  0.00    +0.000 N 
ATOM     20  C   UNL     1      29.301  -1.878  10.927  0.00  0.00    +0.000 C 
ATOM     34  H   UNL     1      30.013  -2.975   9.349  0.00  0.00    +0.000 HD
BRANCH  20  21
ATOM     21  C   UNL     1      27.968  -1.937  10.196  0.00  0.00    +0.000 C 
BRANCH  21  25
ATOM     25  C   UNL     1      27.892  -3.039   9.142  0.00  0.00    +0.000 C 
ATOM     28  C   UNL     1      26.488  -3.213   8.581  0.00  0.00    +0.000 C 
ENDBRANCH  21  25
ENDBRANCH  20  21
ENDBRANCH  16  13
ENDBRANCH  12  16
TORSDOF 9
ENDMDL
MODEL 9
REMARK VINA RESULT:      -6.7      3.890      9.596
REMARK  Name = 536471
REMARK  11 active torsions:
REMARK  status: ('A' for Active; 'I' for Inactive)
REMARK    1  A    between atoms: S_1  and  N_14
REMARK    2  A    between atoms: S_1  and  C_24
REMARK    3  A    between atoms: N_12  and  C_16
REMARK    4  A    between atoms: N_12  and  C_19
REMARK    5  A    between atoms: N_13  and  C_16
REMARK    6  A    between atoms: C_16  and  C_17
REMARK    7  A    between atoms: C_16  and  C_18
REMARK    8  A    between atoms: C_20  and  C_21
REMARK    9  A    between atoms: C_21  and  C_25
REMARK   10  A    between atoms: C_25  and  C_28
REMARK   11  A    between atoms: C_31  and  C_32
REMARK                            x       y       z     vdW  Elec       q    Type
REMARK                         _______ _______ _______ _____ _____    ______ ____
ROOT
ATOM     12  N   UNL     1      31.292  -3.043  12.064  0.00  0.00    +0.000 N 
ATOM     33  H   UNL     1      30.436  -2.706  12.498  0.00  0.00    +0.000 HD
ENDROOT
BRANCH  12  19
ATOM     19  C   UNL     1      32.220  -3.567  12.951  0.00  0.00    +0.000 A 
ATOM     22  C   UNL     1      33.304  -2.793  13.362  0.00  0.00    +0.000 A 
ATOM     23  C   UNL     1      32.069  -4.868  13.432  0.00  0.00    +0.000 A 
ATOM     24  C   UNL     1      34.087  -4.620  14.737  0.00  0.00    +0.000 A 
ATOM     26  C   UNL     1      34.238  -3.320  14.255  0.00  0.00    +0.000 A 
ATOM     27  C   UNL     1      33.002  -5.395  14.324  0.00  0.00    +0.000 A 
BRANCH  24   1
ATOM      1  S   UNL     1      35.256  -5.280  15.852  0.00  0.00    +0.000 S 
ATOM      9  O   UNL     1      34.534  -5.863  16.977  0.00  0.00    +0.000 OA
ATOM     10  O   UNL     1      36.190  -6.104  15.095  0.00  0.00    +0.000 OA
BRANCH   1  14
ATOM     11  O   UNL     1      34.321  -2.083  18.883  0.00  0.00    +0.000 OA
ATOM     14  N   UNL     1      36.055  -3.865  16.375  0.00  0.00    +0.000 N 
ATOM     15  N   UNL     1      34.419  -3.158  18.010  0.00  0.00    +0.000 NA
ATOM     29  C   UNL     1      35.576  -2.976  17.366  0.00  0.00    +0.000 A 
ATOM     30  C   UNL     1      36.244  -1.814  17.789  0.00  0.00    +0.000 A 
ATOM     31  C   UNL     1      35.413  -1.289  18.743  0.00  0.00    +0.000 A 
ATOM     32  C   UNL     1      35.474  -0.097  19.598  0.00  0.00    +0.000 C 
ATOM     35  H   UNL     1      36.910  -3.582  15.878  0.00  0.00    +0.000 HD
ENDBRANCH   1  14
ENDBRANCH  24   1
ENDBRANCH  12  19
BRANCH  12  16
ATOM     16  C   UNL     1      31.397  -2.803  10.615  0.00  0.00    +0.000 C 
BRANCH  16  17
ATOM      2  F   UNL     1      32.323  -0.715  11.344  0.00  0.00    +0.000 F 
ATOM      3  F   UNL     1      33.655  -2.060  10.278  0.00  0.00    +0.000 F 
ATOM      4  F   UNL     1      32.081  -1.005   9.208  0.00  0.00    +0.000 F 
ATOM     17  C   UNL     1      32.375  -1.645  10.365  0.00  0.00    +0.000 C 
ENDBRANCH  16  17
BRANCH  16  18
ATOM      5  F   UNL     1      33.179  -4.410  10.524  0.00  0.00    +0.000 F 
ATOM      6  F   UNL     1      32.115  -3.992   8.669  0.00  0.00    +0.000 F 
ATOM      7  F   UNL     1      31.152  -5.151  10.245  0.00  0.00    +0.000 F 
ATOM     18  C   UNL     1      31.969  -4.098  10.011  0.00  0.00    +0.000 C 
ENDBRANCH  16  18
BRANCH  16  13
ATOM      8  O   UNL     1      29.108  -1.218  11.723  0.00  0.00    +0.000 OA
ATOM     13  N   UNL     1      30.048  -2.579  10.080  0.00  0.00    +0.000 N 
ATOM     20  C   UNL     1      29.037  -1.825  10.660  0.00  0.00    +0.000 C 
ATOM     34  H   UNL     1      29.876  -2.910   9.138  0.00  0.00    +0.000 HD
BRANCH  20  21
ATOM     21  C   UNL     1      27.774  -1.858   9.813  0.00  0.00    +0.000 C 
BRANCH  21  25
ATOM     25  C   UNL     1      27.621  -3.132   8.984  0.00  0.00    +0.000 C 
ATOM     28  C   UNL     1      26.212  -3.304   8.435  0.00  0.00    +0.000 C 
ENDBRANCH  21  25
ENDBRANCH  20  21
ENDBRANCH  16  13
ENDBRANCH  12  16
TORSDOF 9
ENDMDL
