MODEL 1
REMARK VINA RESULT:      -7.9      0.000      0.000
REMARK  Name = 694829
REMARK  5 active torsions:
REMARK  status: ('A' for Active; 'I' for Inactive)
REMARK    1  A    between atoms: S_1  and  N_6
REMARK    2  A    between atoms: S_1  and  C_8
REMARK    3  A    between atoms: O_5  and  C_14
REMARK    4  A    between atoms: O_5  and  C_18
REMARK    5  A    between atoms: C_16  and  C_17
REMARK                            x       y       z     vdW  Elec       q    Type
REMARK                         _______ _______ _______ _____ _____    ______ ____
ROOT
ATOM      1  S   UNL     1      29.055  -0.187   9.357  0.00  0.00    +0.000 S 
ATOM      2  O   UNL     1      28.424   0.255  10.596  0.00  0.00    +0.000 OA
ATOM      3  O   UNL     1      29.438   0.813   8.368  0.00  0.00    +0.000 OA
ENDROOT
BRANCH   1   6
ATOM      4  O   UNL     1      30.356  -1.665  13.247  0.00  0.00    +0.000 OA
ATOM      6  N   UNL     1      30.424  -1.147   9.766  0.00  0.00    +0.000 N 
ATOM      7  N   UNL     1      29.714  -1.345  12.057  0.00  0.00    +0.000 NA
ATOM     11  C   UNL     1      30.673  -1.414  11.158  0.00  0.00    +0.000 A 
ATOM     15  C   UNL     1      31.918  -1.759  11.658  0.00  0.00    +0.000 A 
ATOM     16  C   UNL     1      31.668  -1.909  12.996  0.00  0.00    +0.000 A 
ATOM     17  C   UNL     1      32.501  -2.266  14.152  0.00  0.00    +0.000 C 
ATOM     19  H   UNL     1      31.235  -1.165   9.134  0.00  0.00    +0.000 HD
ENDBRANCH   1   6
BRANCH   1   8
ATOM      8  C   UNL     1      27.985  -1.341   8.599  0.00  0.00    +0.000 A 
ATOM      9  C   UNL     1      27.620  -2.503   9.277  0.00  0.00    +0.000 A 
ATOM     10  C   UNL     1      27.496  -1.099   7.314  0.00  0.00    +0.000 A 
ATOM     12  C   UNL     1      26.765  -3.425   8.671  0.00  0.00    +0.000 A 
ATOM     13  C   UNL     1      26.642  -2.020   6.709  0.00  0.00    +0.000 A 
ATOM     14  C   UNL     1      26.276  -3.183   7.388  0.00  0.00    +0.000 A 
BRANCH  14   5
ATOM      5  O   UNL     1      25.442  -4.083   6.798  0.00  0.00    +0.000 OA
ATOM     18  C   UNL     1      25.075  -5.228   7.564  0.00  0.00    +0.000 C 
ENDBRANCH  14   5
ENDBRANCH   1   8
TORSDOF 3
ENDMDL
MODEL 2
REMARK VINA RESULT:      -7.5      1.728      2.153
REMARK  Name = 694829
REMARK  5 active torsions:
REMARK  status: ('A' for Active; 'I' for Inactive)
REMARK    1  A    between atoms: S_1  and  N_6
REMARK    2  A    between atoms: S_1  and  C_8
REMARK    3  A    between atoms: O_5  and  C_14
REMARK    4  A    between atoms: O_5  and  C_18
REMARK    5  A    between atoms: C_16  and  C_17
REMARK                            x       y       z     vdW  Elec       q    Type
REMARK                         _______ _______ _______ _____ _____    ______ ____
ROOT
ATOM      1  S   UNL     1      28.570  -0.119   9.933  0.00  0.00    +0.000 S 
ATOM      2  O   UNL     1      28.686  -0.666  11.280  0.00  0.00    +0.000 OA
ATOM      3  O   UNL     1      27.969   1.198   9.759  0.00  0.00    +0.000 OA
ENDROOT
BRANCH   1   6
ATOM      4  O   UNL     1      31.883  -2.886  10.544  0.00  0.00    +0.000 OA
ATOM      6  N   UNL     1      30.133  -0.140   9.210  0.00  0.00    +0.000 N 
ATOM      7  N   UNL     1      30.691  -2.230  10.263  0.00  0.00    +0.000 NA
ATOM     11  C   UNL     1      31.079  -1.120   9.671  0.00  0.00    +0.000 A 
ATOM     15  C   UNL     1      32.451  -0.983   9.531  0.00  0.00    +0.000 A 
ATOM     16  C   UNL     1      32.924  -2.133  10.103  0.00  0.00    +0.000 A 
ATOM     17  C   UNL     1      34.269  -2.681  10.319  0.00  0.00    +0.000 C 
ATOM     19  H   UNL     1      30.515   0.726   8.809  0.00  0.00    +0.000 HD
ENDBRANCH   1   6
BRANCH   1   8
ATOM      8  C   UNL     1      27.681  -1.271   8.967  0.00  0.00    +0.000 A 
ATOM      9  C   UNL     1      27.491  -1.040   7.606  0.00  0.00    +0.000 A 
ATOM     10  C   UNL     1      27.161  -2.423   9.559  0.00  0.00    +0.000 A 
ATOM     12  C   UNL     1      26.780  -1.960   6.834  0.00  0.00    +0.000 A 
ATOM     13  C   UNL     1      26.451  -3.343   8.789  0.00  0.00    +0.000 A 
ATOM     14  C   UNL     1      26.261  -3.112   7.426  0.00  0.00    +0.000 A 
BRANCH  14   5
ATOM      5  O   UNL     1      25.569  -4.010   6.673  0.00  0.00    +0.000 OA
ATOM     18  C   UNL     1      24.921  -5.075   7.364  0.00  0.00    +0.000 C 
ENDBRANCH  14   5
ENDBRANCH   1   8
TORSDOF 3
ENDMDL
MODEL 3
REMARK VINA RESULT:      -6.7      2.221      5.739
REMARK  Name = 694829
REMARK  5 active torsions:
REMARK  status: ('A' for Active; 'I' for Inactive)
REMARK    1  A    between atoms: S_1  and  N_6
REMARK    2  A    between atoms: S_1  and  C_8
REMARK    3  A    between atoms: O_5  and  C_14
REMARK    4  A    between atoms: O_5  and  C_18
REMARK    5  A    between atoms: C_16  and  C_17
REMARK                            x       y       z     vdW  Elec       q    Type
REMARK                         _______ _______ _______ _____ _____    ______ ____
ROOT
ATOM      1  S   UNL     1      29.152   0.311   9.227  0.00  0.00    +0.000 S 
ATOM      2  O   UNL     1      29.927   1.469   8.795  0.00  0.00    +0.000 OA
ATOM      3  O   UNL     1      28.242   0.456  10.357  0.00  0.00    +0.000 OA
ENDROOT
BRANCH   1   6
ATOM      4  O   UNL     1      26.048  -2.745   9.030  0.00  0.00    +0.000 OA
ATOM      6  N   UNL     1      28.288  -0.294   7.865  0.00  0.00    +0.000 N 
ATOM      7  N   UNL     1      26.856  -1.638   9.256  0.00  0.00    +0.000 NA
ATOM     11  C   UNL     1      27.375  -1.386   8.072  0.00  0.00    +0.000 A 
ATOM     15  C   UNL     1      26.972  -2.245   7.063  0.00  0.00    +0.000 A 
ATOM     16  C   UNL     1      26.126  -3.098   7.721  0.00  0.00    +0.000 A 
ATOM     17  C   UNL     1      25.326  -4.257   7.305  0.00  0.00    +0.000 C 
ATOM     19  H   UNL     1      28.696  -0.196   6.927  0.00  0.00    +0.000 HD
ENDBRANCH   1   6
BRANCH   1   8
ATOM      8  C   UNL     1      30.276  -0.979   9.577  0.00  0.00    +0.000 A 
ATOM      9  C   UNL     1      31.644  -0.777   9.407  0.00  0.00    +0.000 A 
ATOM     10  C   UNL     1      29.803  -2.213  10.026  0.00  0.00    +0.000 A 
ATOM     12  C   UNL     1      32.543  -1.808   9.686  0.00  0.00    +0.000 A 
ATOM     13  C   UNL     1      30.700  -3.243  10.306  0.00  0.00    +0.000 A 
ATOM     14  C   UNL     1      32.070  -3.041  10.136  0.00  0.00    +0.000 A 
BRANCH  14   5
ATOM      5  O   UNL     1      32.947  -4.046  10.408  0.00  0.00    +0.000 OA
ATOM     18  C   UNL     1      32.574  -4.975  11.424  0.00  0.00    +0.000 C 
ENDBRANCH  14   5
ENDBRANCH   1   8
TORSDOF 3
ENDMDL
MODEL 4
REMARK VINA RESULT:      -6.6      2.595      3.609
REMARK  Name = 694829
REMARK  5 active torsions:
REMARK  status: ('A' for Active; 'I' for Inactive)
REMARK    1  A    between atoms: S_1  and  N_6
REMARK    2  A    between atoms: S_1  and  C_8
REMARK    3  A    between atoms: O_5  and  C_14
REMARK    4  A    between atoms: O_5  and  C_18
REMARK    5  A    between atoms: C_16  and  C_17
REMARK                            x       y       z     vdW  Elec       q    Type
REMARK                         _______ _______ _______ _____ _____    ______ ____
ROOT
ATOM      1  S   UNL     1      31.070  -1.923  12.236  0.00  0.00    +0.000 S 
ATOM      2  O   UNL     1      30.537  -1.273  13.429  0.00  0.00    +0.000 OA
ATOM      3  O   UNL     1      32.196  -1.308  11.545  0.00  0.00    +0.000 OA
ENDROOT
BRANCH   1   6
ATOM      4  O   UNL     1      33.073  -3.500  15.774  0.00  0.00    +0.000 OA
ATOM      6  N   UNL     1      31.463  -3.550  12.645  0.00  0.00    +0.000 N 
ATOM      7  N   UNL     1      32.245  -2.908  14.828  0.00  0.00    +0.000 NA
ATOM     11  C   UNL     1      32.222  -3.783  13.844  0.00  0.00    +0.000 A 
ATOM     15  C   UNL     1      32.976  -4.925  14.061  0.00  0.00    +0.000 A 
ATOM     16  C   UNL     1      33.502  -4.701  15.305  0.00  0.00    +0.000 A 
ATOM     17  C   UNL     1      34.393  -5.468  16.185  0.00  0.00    +0.000 C 
ATOM     19  H   UNL     1      31.540  -4.252  11.898  0.00  0.00    +0.000 HD
ENDBRANCH   1   6
BRANCH   1   8
ATOM      8  C   UNL     1      29.755  -2.115  11.104  0.00  0.00    +0.000 A 
ATOM      9  C   UNL     1      29.839  -3.071  10.093  0.00  0.00    +0.000 A 
ATOM     10  C   UNL     1      28.620  -1.310  11.211  0.00  0.00    +0.000 A 
ATOM     12  C   UNL     1      28.789  -3.223   9.187  0.00  0.00    +0.000 A 
ATOM     13  C   UNL     1      27.569  -1.463  10.307  0.00  0.00    +0.000 A 
ATOM     14  C   UNL     1      27.653  -2.420   9.295  0.00  0.00    +0.000 A 
BRANCH  14   5
ATOM      5  O   UNL     1      26.629  -2.570   8.412  0.00  0.00    +0.000 OA
ATOM     18  C   UNL     1      26.102  -3.885   8.245  0.00  0.00    +0.000 C 
ENDBRANCH  14   5
ENDBRANCH   1   8
TORSDOF 3
ENDMDL
MODEL 5
REMARK VINA RESULT:      -6.6      3.394      5.071
REMARK  Name = 694829
REMARK  5 active torsions:
REMARK  status: ('A' for Active; 'I' for Inactive)
REMARK    1  A    between atoms: S_1  and  N_6
REMARK    2  A    between atoms: S_1  and  C_8
REMARK    3  A    between atoms: O_5  and  C_14
REMARK    4  A    between atoms: O_5  and  C_18
REMARK    5  A    between atoms: C_16  and  C_17
REMARK                            x       y       z     vdW  Elec       q    Type
REMARK                         _______ _______ _______ _____ _____    ______ ____
ROOT
ATOM      1  S   UNL     1      32.217  -2.536  13.286  0.00  0.00    +0.000 S 
ATOM      2  O   UNL     1      33.265  -3.454  12.854  0.00  0.00    +0.000 OA
ATOM      3  O   UNL     1      31.546  -2.785  14.556  0.00  0.00    +0.000 OA
ENDROOT
BRANCH   1   6
ATOM      4  O   UNL     1      34.752  -0.550  16.226  0.00  0.00    +0.000 OA
ATOM      6  N   UNL     1      32.867  -0.941  13.280  0.00  0.00    +0.000 N 
ATOM      7  N   UNL     1      34.156  -1.361  15.268  0.00  0.00    +0.000 NA
ATOM     11  C   UNL     1      33.600  -0.503  14.437  0.00  0.00    +0.000 A 
ATOM     15  C   UNL     1      33.781   0.830  14.768  0.00  0.00    +0.000 A 
ATOM     16  C   UNL     1      34.522   0.752  15.917  0.00  0.00    +0.000 A 
ATOM     17  C   UNL     1      35.086   1.753  16.831  0.00  0.00    +0.000 C 
ATOM     19  H   UNL     1      32.413  -0.215  12.712  0.00  0.00    +0.000 HD
ENDBRANCH   1   6
BRANCH   1   8
ATOM      8  C   UNL     1      31.015  -2.470  12.022  0.00  0.00    +0.000 A 
ATOM      9  C   UNL     1      29.951  -1.574  12.118  0.00  0.00    +0.000 A 
ATOM     10  C   UNL     1      31.119  -3.314  10.916  0.00  0.00    +0.000 A 
ATOM     12  C   UNL     1      28.989  -1.521  11.107  0.00  0.00    +0.000 A 
ATOM     13  C   UNL     1      30.159  -3.261   9.906  0.00  0.00    +0.000 A 
ATOM     14  C   UNL     1      29.094  -2.365  10.001  0.00  0.00    +0.000 A 
BRANCH  14   5
ATOM      5  O   UNL     1      28.157  -2.312   9.016  0.00  0.00    +0.000 OA
ATOM     18  C   UNL     1      27.611  -1.032   8.705  0.00  0.00    +0.000 C 
ENDBRANCH  14   5
ENDBRANCH   1   8
TORSDOF 3
ENDMDL
MODEL 6
REMARK VINA RESULT:      -6.5      2.749      3.859
REMARK  Name = 694829
REMARK  5 active torsions:
REMARK  status: ('A' for Active; 'I' for Inactive)
REMARK    1  A    between atoms: S_1  and  N_6
REMARK    2  A    between atoms: S_1  and  C_8
REMARK    3  A    between atoms: O_5  and  C_14
REMARK    4  A    between atoms: O_5  and  C_18
REMARK    5  A    between atoms: C_16  and  C_17
REMARK                            x       y       z     vdW  Elec       q    Type
REMARK                         _______ _______ _______ _____ _____    ______ ____
ROOT
ATOM      1  S   UNL     1      31.061  -1.786  11.875  0.00  0.00    +0.000 S 
ATOM      2  O   UNL     1      30.520  -1.522  13.204  0.00  0.00    +0.000 OA
ATOM      3  O   UNL     1      32.317  -1.154  11.489  0.00  0.00    +0.000 OA
ENDROOT
BRANCH   1   6
ATOM      4  O   UNL     1      32.874  -4.759  14.499  0.00  0.00    +0.000 OA
ATOM      6  N   UNL     1      31.190  -3.492  11.680  0.00  0.00    +0.000 N 
ATOM      7  N   UNL     1      32.129  -3.764  13.879  0.00  0.00    +0.000 NA
ATOM     11  C   UNL     1      31.934  -4.233  12.664  0.00  0.00    +0.000 A 
ATOM     15  C   UNL     1      32.494  -5.476  12.421  0.00  0.00    +0.000 A 
ATOM     16  C   UNL     1      33.085  -5.774  13.620  0.00  0.00    +0.000 A 
ATOM     17  C   UNL     1      33.861  -6.919  14.114  0.00  0.00    +0.000 C 
ATOM     19  H   UNL     1      31.129  -3.898  10.737  0.00  0.00    +0.000 HD
ENDBRANCH   1   6
BRANCH   1   8
ATOM      8  C   UNL     1      29.836  -1.354  10.708  0.00  0.00    +0.000 A 
ATOM      9  C   UNL     1      30.140  -0.475   9.670  0.00  0.00    +0.000 A 
ATOM     10  C   UNL     1      28.551  -1.889  10.816  0.00  0.00    +0.000 A 
ATOM     12  C   UNL     1      29.161  -0.130   8.738  0.00  0.00    +0.000 A 
ATOM     13  C   UNL     1      27.573  -1.545   9.884  0.00  0.00    +0.000 A 
ATOM     14  C   UNL     1      27.877  -0.665   8.845  0.00  0.00    +0.000 A 
BRANCH  14   5
ATOM      5  O   UNL     1      26.923  -0.329   7.935  0.00  0.00    +0.000 OA
ATOM     18  C   UNL     1      26.822  -1.143   6.768  0.00  0.00    +0.000 C 
ENDBRANCH  14   5
ENDBRANCH   1   8
TORSDOF 3
ENDMDL
MODEL 7
REMARK VINA RESULT:      -6.4      2.805      7.015
REMARK  Name = 694829
REMARK  5 active torsions:
REMARK  status: ('A' for Active; 'I' for Inactive)
REMARK    1  A    between atoms: S_1  and  N_6
REMARK    2  A    between atoms: S_1  and  C_8
REMARK    3  A    between atoms: O_5  and  C_14
REMARK    4  A    between atoms: O_5  and  C_18
REMARK    5  A    between atoms: C_16  and  C_17
REMARK                            x       y       z     vdW  Elec       q    Type
REMARK                         _______ _______ _______ _____ _____    ______ ____
ROOT
ATOM      1  S   UNL     1      31.040  -2.014  12.091  0.00  0.00    +0.000 S 
ATOM      2  O   UNL     1      32.133  -1.204  11.565  0.00  0.00    +0.000 OA
ATOM      3  O   UNL     1      30.125  -1.418  13.056  0.00  0.00    +0.000 OA
ENDROOT
BRANCH   1   6
ATOM      4  O   UNL     1      28.589   0.086   9.159  0.00  0.00    +0.000 OA
ATOM      6  N   UNL     1      30.145  -2.636  10.757  0.00  0.00    +0.000 N 
ATOM      7  N   UNL     1      29.576  -0.427   9.992  0.00  0.00    +0.000 NA
ATOM     11  C   UNL     1      29.334  -1.721   9.999  0.00  0.00    +0.000 A 
ATOM     15  C   UNL     1      28.254  -2.117   9.227  0.00  0.00    +0.000 A 
ATOM     16  C   UNL     1      27.808  -0.930   8.710  0.00  0.00    +0.000 A 
ATOM     17  C   UNL     1      26.708  -0.564   7.810  0.00  0.00    +0.000 C 
ATOM     19  H   UNL     1      29.860  -3.624  10.758  0.00  0.00    +0.000 HD
ENDBRANCH   1   6
BRANCH   1   8
ATOM      8  C   UNL     1      31.736  -3.452  12.795  0.00  0.00    +0.000 A 
ATOM      9  C   UNL     1      32.007  -4.560  11.993  0.00  0.00    +0.000 A 
ATOM     10  C   UNL     1      32.021  -3.492  14.160  0.00  0.00    +0.000 A 
ATOM     12  C   UNL     1      32.562  -5.710  12.556  0.00  0.00    +0.000 A 
ATOM     13  C   UNL     1      32.578  -4.640  14.723  0.00  0.00    +0.000 A 
ATOM     14  C   UNL     1      32.848  -5.750  13.921  0.00  0.00    +0.000 A 
BRANCH  14   5
ATOM      5  O   UNL     1      33.391  -6.871  14.469  0.00  0.00    +0.000 OA
ATOM     18  C   UNL     1      33.248  -7.040  15.878  0.00  0.00    +0.000 C 
ENDBRANCH  14   5
ENDBRANCH   1   8
TORSDOF 3
ENDMDL
MODEL 8
REMARK VINA RESULT:      -6.1     17.671     18.499
REMARK  Name = 694829
REMARK  5 active torsions:
REMARK  status: ('A' for Active; 'I' for Inactive)
REMARK    1  A    between atoms: S_1  and  N_6
REMARK    2  A    between atoms: S_1  and  C_8
REMARK    3  A    between atoms: O_5  and  C_14
REMARK    4  A    between atoms: O_5  and  C_18
REMARK    5  A    between atoms: C_16  and  C_17
REMARK                            x       y       z     vdW  Elec       q    Type
REMARK                         _______ _______ _______ _____ _____    ______ ____
ROOT
ATOM      1  S   UNL     1      20.073  -7.900  24.488  0.00  0.00    +0.000 S 
ATOM      2  O   UNL     1      20.962  -8.107  23.350  0.00  0.00    +0.000 OA
ATOM      3  O   UNL     1      20.153  -8.816  25.619  0.00  0.00    +0.000 OA
ENDROOT
BRANCH   1   6
ATOM      4  O   UNL     1      23.494  -6.049  26.459  0.00  0.00    +0.000 OA
ATOM      6  N   UNL     1      20.281  -6.282  25.042  0.00  0.00    +0.000 N 
ATOM      7  N   UNL     1      22.582  -6.681  25.622  0.00  0.00    +0.000 NA
ATOM     11  C   UNL     1      21.488  -5.960  25.754  0.00  0.00    +0.000 A 
ATOM     15  C   UNL     1      21.599  -4.884  26.621  0.00  0.00    +0.000 A 
ATOM     16  C   UNL     1      22.897  -4.981  27.048  0.00  0.00    +0.000 A 
ATOM     17  C   UNL     1      23.724  -4.193  27.970  0.00  0.00    +0.000 C 
ATOM     19  H   UNL     1      19.452  -5.707  25.241  0.00  0.00    +0.000 HD
ENDBRANCH   1   6
BRANCH   1   8
ATOM      8  C   UNL     1      18.433  -7.896  23.887  0.00  0.00    +0.000 A 
ATOM      9  C   UNL     1      17.371  -7.660  24.759  0.00  0.00    +0.000 A 
ATOM     10  C   UNL     1      18.186  -8.128  22.534  0.00  0.00    +0.000 A 
ATOM     12  C   UNL     1      16.061  -7.658  24.279  0.00  0.00    +0.000 A 
ATOM     13  C   UNL     1      16.877  -8.125  22.053  0.00  0.00    +0.000 A 
ATOM     14  C   UNL     1      15.814  -7.889  22.926  0.00  0.00    +0.000 A 
BRANCH  14   5
ATOM      5  O   UNL     1      14.536  -7.886  22.458  0.00  0.00    +0.000 OA
ATOM     18  C   UNL     1      14.042  -9.105  21.908  0.00  0.00    +0.000 C 
ENDBRANCH  14   5
ENDBRANCH   1   8
TORSDOF 3
ENDMDL
MODEL 9
REMARK VINA RESULT:      -5.9      5.355      6.380
REMARK  Name = 694829
REMARK  5 active torsions:
REMARK  status: ('A' for Active; 'I' for Inactive)
REMARK    1  A    between atoms: S_1  and  N_6
REMARK    2  A    between atoms: S_1  and  C_8
REMARK    3  A    between atoms: O_5  and  C_14
REMARK    4  A    between atoms: O_5  and  C_18
REMARK    5  A    between atoms: C_16  and  C_17
REMARK                            x       y       z     vdW  Elec       q    Type
REMARK                         _______ _______ _______ _____ _____    ______ ____
ROOT
ATOM      1  S   UNL     1      32.071  -2.368  12.838  0.00  0.00    +0.000 S 
ATOM      2  O   UNL     1      30.899  -2.364  13.707  0.00  0.00    +0.000 OA
ATOM      3  O   UNL     1      32.109  -1.449  11.706  0.00  0.00    +0.000 OA
ENDROOT
BRANCH   1   6
ATOM      4  O   UNL     1      33.096   0.955  15.468  0.00  0.00    +0.000 OA
ATOM      6  N   UNL     1      33.466  -2.132  13.820  0.00  0.00    +0.000 N 
ATOM      7  N   UNL     1      32.551  -0.134  14.799  0.00  0.00    +0.000 NA
ATOM     11  C   UNL     1      33.597  -0.884  14.523  0.00  0.00    +0.000 A 
ATOM     15  C   UNL     1      34.810  -0.379  14.961  0.00  0.00    +0.000 A 
ATOM     16  C   UNL     1      34.442   0.798  15.558  0.00  0.00    +0.000 A 
ATOM     17  C   UNL     1      35.184   1.864  16.243  0.00  0.00    +0.000 C 
ATOM     19  H   UNL     1      34.334  -2.634  13.591  0.00  0.00    +0.000 HD
ENDBRANCH   1   6
BRANCH   1   8
ATOM      8  C   UNL     1      32.285  -3.996  12.244  0.00  0.00    +0.000 A 
ATOM      9  C   UNL     1      32.250  -4.248  10.873  0.00  0.00    +0.000 A 
ATOM     10  C   UNL     1      32.493  -5.044  13.141  0.00  0.00    +0.000 A 
ATOM     12  C   UNL     1      32.421  -5.550  10.398  0.00  0.00    +0.000 A 
ATOM     13  C   UNL     1      32.664  -6.344  12.667  0.00  0.00    +0.000 A 
ATOM     14  C   UNL     1      32.628  -6.597  11.296  0.00  0.00    +0.000 A 
BRANCH  14   5
ATOM      5  O   UNL     1      32.796  -7.866  10.832  0.00  0.00    +0.000 OA
ATOM     18  C   UNL     1      32.370  -8.929  11.681  0.00  0.00    +0.000 C 
ENDBRANCH  14   5
ENDBRANCH   1   8
TORSDOF 3
ENDMDL
