MODEL 1
REMARK VINA RESULT:      -7.7      0.000      0.000
REMARK  Name = 2730383
REMARK  5 active torsions:
REMARK  status: ('A' for Active; 'I' for Inactive)
REMARK    1  A    between atoms: N_3  and  C_6
REMARK    2  A    between atoms: N_3  and  C_13
REMARK    3  A    between atoms: N_4  and  C_13
REMARK    4  A    between atoms: C_7  and  C_16
REMARK    5  A    between atoms: C_15  and  C_17
REMARK                            x       y       z     vdW  Elec       q    Type
REMARK                         _______ _______ _______ _____ _____    ______ ____
ROOT
ATOM      1  S   UNL     1      25.338  -6.552   8.190  0.00  0.00    +0.000 S 
ATOM     13  C   UNL     1      24.968  -4.929   7.929  0.00  0.00    +0.000 C 
ENDROOT
BRANCH  13   4
ATOM      2  O   UNL     1      21.131  -4.345   5.929  0.00  0.00    +0.000 OA
ATOM      4  N   UNL     1      23.774  -4.297   8.222  0.00  0.00    +0.000 N 
ATOM      5  N   UNL     1      22.323  -4.871   6.413  0.00  0.00    +0.000 NA
ATOM     12  C   UNL     1      22.611  -4.095   7.436  0.00  0.00    +0.000 A 
ATOM     14  C   UNL     1      21.698  -3.082   7.677  0.00  0.00    +0.000 A 
ATOM     15  C   UNL     1      20.769  -3.280   6.689  0.00  0.00    +0.000 A 
ATOM     17  C   UNL     1      19.524  -2.600   6.314  0.00  0.00    +0.000 C 
ATOM     19  H   UNL     1      23.804  -3.627   8.983  0.00  0.00    +0.000 HD
ENDBRANCH  13   4
BRANCH  13   3
ATOM      3  N   UNL     1      26.004  -4.097   7.482  0.00  0.00    +0.000 N 
ATOM     18  H   UNL     1      26.325  -4.325   6.544  0.00  0.00    +0.000 HD
BRANCH   3   6
ATOM      6  C   UNL     1      26.538  -2.914   7.995  0.00  0.00    +0.000 A 
ATOM      7  C   UNL     1      27.605  -0.550   9.021  0.00  0.00    +0.000 A 
ATOM      8  C   UNL     1      26.413  -1.724   7.279  0.00  0.00    +0.000 A 
ATOM      9  C   UNL     1      27.199  -2.923   9.224  0.00  0.00    +0.000 A 
ATOM     10  C   UNL     1      26.946  -0.542   7.792  0.00  0.00    +0.000 A 
ATOM     11  C   UNL     1      27.732  -1.740   9.738  0.00  0.00    +0.000 A 
ATOM     16  C   UNL     1      28.176   0.714   9.570  0.00  0.00    +0.000 C 
ENDBRANCH   3   6
ENDBRANCH  13   3
TORSDOF 3
ENDMDL
MODEL 2
REMARK VINA RESULT:      -6.5      6.223      9.205
REMARK  Name = 2730383
REMARK  5 active torsions:
REMARK  status: ('A' for Active; 'I' for Inactive)
REMARK    1  A    between atoms: N_3  and  C_6
REMARK    2  A    between atoms: N_3  and  C_13
REMARK    3  A    between atoms: N_4  and  C_13
REMARK    4  A    between atoms: C_7  and  C_16
REMARK    5  A    between atoms: C_15  and  C_17
REMARK                            x       y       z     vdW  Elec       q    Type
REMARK                         _______ _______ _______ _____ _____    ______ ____
ROOT
ATOM      1  S   UNL     1      32.651   0.105   9.392  0.00  0.00    +0.000 S 
ATOM     13  C   UNL     1      31.685  -0.983  10.243  0.00  0.00    +0.000 C 
ENDROOT
BRANCH  13   4
ATOM      2  O   UNL     1      31.854  -2.196  14.434  0.00  0.00    +0.000 OA
ATOM      4  N   UNL     1      32.116  -2.093  10.947  0.00  0.00    +0.000 N 
ATOM      5  N   UNL     1      31.471  -1.667  13.208  0.00  0.00    +0.000 NA
ATOM     12  C   UNL     1      32.204  -2.334  12.341  0.00  0.00    +0.000 A 
ATOM     14  C   UNL     1      33.054  -3.275  12.897  0.00  0.00    +0.000 A 
ATOM     15  C   UNL     1      32.796  -3.152  14.237  0.00  0.00    +0.000 A 
ATOM     17  C   UNL     1      33.316  -3.819  15.437  0.00  0.00    +0.000 C 
ATOM     19  H   UNL     1      32.725  -2.726  10.442  0.00  0.00    +0.000 HD
ENDBRANCH  13   4
BRANCH  13   3
ATOM      3  N   UNL     1      30.322  -0.679  10.358  0.00  0.00    +0.000 N 
ATOM     18  H   UNL     1      30.141   0.140  10.934  0.00  0.00    +0.000 HD
BRANCH   3   6
ATOM      6  C   UNL     1      29.199  -1.163   9.686  0.00  0.00    +0.000 A 
ATOM      7  C   UNL     1      26.953  -2.129   8.342  0.00  0.00    +0.000 A 
ATOM      8  C   UNL     1      28.795  -2.486   9.863  0.00  0.00    +0.000 A 
ATOM      9  C   UNL     1      28.479  -0.322   8.836  0.00  0.00    +0.000 A 
ATOM     10  C   UNL     1      27.673  -2.969   9.191  0.00  0.00    +0.000 A 
ATOM     11  C   UNL     1      27.356  -0.805   8.164  0.00  0.00    +0.000 A 
ATOM     16  C   UNL     1      25.752  -2.645   7.624  0.00  0.00    +0.000 C 
ENDBRANCH   3   6
ENDBRANCH  13   3
TORSDOF 3
ENDMDL
MODEL 3
REMARK VINA RESULT:      -6.3      7.840     11.037
REMARK  Name = 2730383
REMARK  5 active torsions:
REMARK  status: ('A' for Active; 'I' for Inactive)
REMARK    1  A    between atoms: N_3  and  C_6
REMARK    2  A    between atoms: N_3  and  C_13
REMARK    3  A    between atoms: N_4  and  C_13
REMARK    4  A    between atoms: C_7  and  C_16
REMARK    5  A    between atoms: C_15  and  C_17
REMARK                            x       y       z     vdW  Elec       q    Type
REMARK                         _______ _______ _______ _____ _____    ______ ____
ROOT
ATOM      1  S   UNL     1      33.326  -0.825  10.508  0.00  0.00    +0.000 S 
ATOM     13  C   UNL     1      33.029  -1.397  12.065  0.00  0.00    +0.000 C 
ENDROOT
BRANCH  13   4
ATOM      2  O   UNL     1      33.174   0.733  15.874  0.00  0.00    +0.000 OA
ATOM      4  N   UNL     1      33.891  -1.336  13.145  0.00  0.00    +0.000 N 
ATOM      5  N   UNL     1      32.764   0.033  14.746  0.00  0.00    +0.000 NA
ATOM     12  C   UNL     1      33.873  -0.520  14.304  0.00  0.00    +0.000 A 
ATOM     14  C   UNL     1      35.004  -0.243  15.055  0.00  0.00    +0.000 A 
ATOM     15  C   UNL     1      34.509   0.561  16.049  0.00  0.00    +0.000 A 
ATOM     17  C   UNL     1      35.112   1.237  17.204  0.00  0.00    +0.000 C 
ATOM     19  H   UNL     1      34.823  -1.700  12.986  0.00  0.00    +0.000 HD
ENDBRANCH  13   4
BRANCH  13   3
ATOM      3  N   UNL     1      31.741  -1.877  12.340  0.00  0.00    +0.000 N 
ATOM     18  H   UNL     1      31.549  -1.962  13.335  0.00  0.00    +0.000 HD
BRANCH   3   6
ATOM      6  C   UNL     1      30.625  -2.072  11.525  0.00  0.00    +0.000 A 
ATOM      7  C   UNL     1      28.394  -2.461   9.897  0.00  0.00    +0.000 A 
ATOM      8  C   UNL     1      30.648  -3.053  10.534  0.00  0.00    +0.000 A 
ATOM      9  C   UNL     1      29.487  -1.284  11.701  0.00  0.00    +0.000 A 
ATOM     10  C   UNL     1      29.532  -3.248   9.720  0.00  0.00    +0.000 A 
ATOM     11  C   UNL     1      28.371  -1.479  10.887  0.00  0.00    +0.000 A 
ATOM     16  C   UNL     1      27.201  -2.669   9.026  0.00  0.00    +0.000 C 
ENDBRANCH   3   6
ENDBRANCH  13   3
TORSDOF 3
ENDMDL
MODEL 4
REMARK VINA RESULT:      -6.1      5.921      8.461
REMARK  Name = 2730383
REMARK  5 active torsions:
REMARK  status: ('A' for Active; 'I' for Inactive)
REMARK    1  A    between atoms: N_3  and  C_6
REMARK    2  A    between atoms: N_3  and  C_13
REMARK    3  A    between atoms: N_4  and  C_13
REMARK    4  A    between atoms: C_7  and  C_16
REMARK    5  A    between atoms: C_15  and  C_17
REMARK                            x       y       z     vdW  Elec       q    Type
REMARK                         _______ _______ _______ _____ _____    ______ ____
ROOT
ATOM      1  S   UNL     1      31.974  -1.873  13.092  0.00  0.00    +0.000 S 
ATOM     13  C   UNL     1      31.201  -1.994  11.599  0.00  0.00    +0.000 C 
ENDROOT
BRANCH  13   4
ATOM      2  O   UNL     1      32.672  -5.938  10.438  0.00  0.00    +0.000 OA
ATOM      4  N   UNL     1      31.709  -2.574  10.451  0.00  0.00    +0.000 N 
ATOM      5  N   UNL     1      31.954  -4.887  10.996  0.00  0.00    +0.000 NA
ATOM     12  C   UNL     1      32.249  -3.865  10.222  0.00  0.00    +0.000 A 
ATOM     14  C   UNL     1      33.116  -4.151   9.180  0.00  0.00    +0.000 A 
ATOM     15  C   UNL     1      33.360  -5.488   9.358  0.00  0.00    +0.000 A 
ATOM     17  C   UNL     1      34.179  -6.474   8.644  0.00  0.00    +0.000 C 
ATOM     19  H   UNL     1      32.020  -1.930   9.733  0.00  0.00    +0.000 HD
ENDBRANCH  13   4
BRANCH  13   3
ATOM      3  N   UNL     1      29.865  -1.577  11.532  0.00  0.00    +0.000 N 
ATOM     18  H   UNL     1      29.509  -1.227  12.418  0.00  0.00    +0.000 HD
BRANCH   3   6
ATOM      6  C   UNL     1      29.005  -1.372  10.452  0.00  0.00    +0.000 A 
ATOM      7  C   UNL     1      27.286  -0.965   8.293  0.00  0.00    +0.000 A 
ATOM      8  C   UNL     1      29.099  -0.204   9.696  0.00  0.00    +0.000 A 
ATOM      9  C   UNL     1      28.050  -2.338  10.129  0.00  0.00    +0.000 A 
ATOM     10  C   UNL     1      28.240  -0.001   8.616  0.00  0.00    +0.000 A 
ATOM     11  C   UNL     1      27.190  -2.134   9.049  0.00  0.00    +0.000 A 
ATOM     16  C   UNL     1      26.367  -0.748   7.139  0.00  0.00    +0.000 C 
ENDBRANCH   3   6
ENDBRANCH  13   3
TORSDOF 3
ENDMDL
MODEL 5
REMARK VINA RESULT:      -6.0      6.185      9.521
REMARK  Name = 2730383
REMARK  5 active torsions:
REMARK  status: ('A' for Active; 'I' for Inactive)
REMARK    1  A    between atoms: N_3  and  C_6
REMARK    2  A    between atoms: N_3  and  C_13
REMARK    3  A    between atoms: N_4  and  C_13
REMARK    4  A    between atoms: C_7  and  C_16
REMARK    5  A    between atoms: C_15  and  C_17
REMARK                            x       y       z     vdW  Elec       q    Type
REMARK                         _______ _______ _______ _____ _____    ______ ____
ROOT
ATOM      1  S   UNL     1      32.497  -2.728   9.659  0.00  0.00    +0.000 S 
ATOM     13  C   UNL     1      32.213  -1.153  10.185  0.00  0.00    +0.000 C 
ENDROOT
BRANCH  13   4
ATOM      2  O   UNL     1      32.802   2.771   8.363  0.00  0.00    +0.000 OA
ATOM      4  N   UNL     1      33.143  -0.134  10.283  0.00  0.00    +0.000 N 
ATOM      5  N   UNL     1      32.256   1.630   8.937  0.00  0.00    +0.000 NA
ATOM     12  C   UNL     1      33.277   1.076   9.556  0.00  0.00    +0.000 A 
ATOM     14  C   UNL     1      34.474   1.763   9.439  0.00  0.00    +0.000 A 
ATOM     15  C   UNL     1      34.123   2.840   8.668  0.00  0.00    +0.000 A 
ATOM     17  C   UNL     1      34.860   3.992   8.137  0.00  0.00    +0.000 C 
ATOM     19  H   UNL     1      34.024  -0.382  10.718  0.00  0.00    +0.000 HD
ENDBRANCH  13   4
BRANCH  13   3
ATOM      3  N   UNL     1      30.883  -0.790  10.439  0.00  0.00    +0.000 N 
ATOM     18  H   UNL     1      30.794  -0.051  11.133  0.00  0.00    +0.000 HD
BRANCH   3   6
ATOM      6  C   UNL     1      29.689  -1.108   9.790  0.00  0.00    +0.000 A 
ATOM      7  C   UNL     1      27.303  -1.744   8.493  0.00  0.00    +0.000 A 
ATOM      8  C   UNL     1      29.053  -2.321  10.054  0.00  0.00    +0.000 A 
ATOM      9  C   UNL     1      29.132  -0.213   8.876  0.00  0.00    +0.000 A 
ATOM     10  C   UNL     1      27.859  -2.639   9.406  0.00  0.00    +0.000 A 
ATOM     11  C   UNL     1      27.938  -0.531   8.228  0.00  0.00    +0.000 A 
ATOM     16  C   UNL     1      26.027  -2.083   7.799  0.00  0.00    +0.000 C 
ENDBRANCH   3   6
ENDBRANCH  13   3
TORSDOF 3
ENDMDL
MODEL 6
REMARK VINA RESULT:      -5.7      7.064     10.287
REMARK  Name = 2730383
REMARK  5 active torsions:
REMARK  status: ('A' for Active; 'I' for Inactive)
REMARK    1  A    between atoms: N_3  and  C_6
REMARK    2  A    between atoms: N_3  and  C_13
REMARK    3  A    between atoms: N_4  and  C_13
REMARK    4  A    between atoms: C_7  and  C_16
REMARK    5  A    between atoms: C_15  and  C_17
REMARK                            x       y       z     vdW  Elec       q    Type
REMARK                         _______ _______ _______ _____ _____    ______ ____
ROOT
ATOM      1  S   UNL     1      34.053  -2.595   9.247  0.00  0.00    +0.000 S 
ATOM     13  C   UNL     1      33.559  -1.387  10.315  0.00  0.00    +0.000 C 
ENDROOT
BRANCH  13   4
ATOM      2  O   UNL     1      32.648  -0.490  14.490  0.00  0.00    +0.000 OA
ATOM      4  N   UNL     1      34.258  -0.920  11.413  0.00  0.00    +0.000 N 
ATOM      5  N   UNL     1      32.708  -1.064  13.226  0.00  0.00    +0.000 NA
ATOM     12  C   UNL     1      33.819  -0.577  12.717  0.00  0.00    +0.000 A 
ATOM     14  C   UNL     1      34.514   0.286  13.549  0.00  0.00    +0.000 A 
ATOM     15  C   UNL     1      33.728   0.311  14.671  0.00  0.00    +0.000 A 
ATOM     17  C   UNL     1      33.824   1.001  15.963  0.00  0.00    +0.000 C 
ATOM     19  H   UNL     1      35.148  -0.478  11.214  0.00  0.00    +0.000 HD
ENDBRANCH  13   4
BRANCH  13   3
ATOM      3  N   UNL     1      32.380  -0.697  10.004  0.00  0.00    +0.000 N 
ATOM     18  H   UNL     1      32.545   0.255   9.685  0.00  0.00    +0.000 HD
BRANCH   3   6
ATOM      6  C   UNL     1      31.058  -1.123   9.866  0.00  0.00    +0.000 A 
ATOM      7  C   UNL     1      28.416  -1.973   9.590  0.00  0.00    +0.000 A 
ATOM      8  C   UNL     1      30.703  -2.424  10.221  0.00  0.00    +0.000 A 
ATOM      9  C   UNL     1      30.091  -0.246   9.371  0.00  0.00    +0.000 A 
ATOM     10  C   UNL     1      29.382  -2.849  10.084  0.00  0.00    +0.000 A 
ATOM     11  C   UNL     1      28.770  -0.672   9.234  0.00  0.00    +0.000 A 
ATOM     16  C   UNL     1      27.003  -2.428   9.442  0.00  0.00    +0.000 C 
ENDBRANCH   3   6
ENDBRANCH  13   3
TORSDOF 3
ENDMDL
MODEL 7
REMARK VINA RESULT:      -5.7      3.136      5.883
REMARK  Name = 2730383
REMARK  5 active torsions:
REMARK  status: ('A' for Active; 'I' for Inactive)
REMARK    1  A    between atoms: N_3  and  C_6
REMARK    2  A    between atoms: N_3  and  C_13
REMARK    3  A    between atoms: N_4  and  C_13
REMARK    4  A    between atoms: C_7  and  C_16
REMARK    5  A    between atoms: C_15  and  C_17
REMARK                            x       y       z     vdW  Elec       q    Type
REMARK                         _______ _______ _______ _____ _____    ______ ____
ROOT
ATOM      1  S   UNL     1      20.723  -3.886   6.286  0.00  0.00    +0.000 S 
ATOM     13  C   UNL     1      22.058  -4.285   7.235  0.00  0.00    +0.000 C 
ENDROOT
BRANCH  13   4
ATOM      2  O   UNL     1      26.414  -4.040   7.404  0.00  0.00    +0.000 OA
ATOM      4  N   UNL     1      22.991  -3.408   7.757  0.00  0.00    +0.000 N 
ATOM      5  N   UNL     1      25.099  -4.244   7.005  0.00  0.00    +0.000 NA
ATOM     12  C   UNL     1      24.404  -3.488   7.829  0.00  0.00    +0.000 A 
ATOM     14  C   UNL     1      25.158  -2.788   8.756  0.00  0.00    +0.000 A 
ATOM     15  C   UNL     1      26.437  -3.172   8.447  0.00  0.00    +0.000 A 
ATOM     17  C   UNL     1      27.758  -2.843   8.998  0.00  0.00    +0.000 C 
ATOM     19  H   UNL     1      22.641  -2.750   8.444  0.00  0.00    +0.000 HD
ENDBRANCH  13   4
BRANCH  13   3
ATOM      3  N   UNL     1      22.181  -5.620   7.642  0.00  0.00    +0.000 N 
ATOM     18  H   UNL     1      21.901  -6.285   6.925  0.00  0.00    +0.000 HD
BRANCH   3   6
ATOM      6  C   UNL     1      22.787  -6.203   8.756  0.00  0.00    +0.000 A 
ATOM      7  C   UNL     1      23.997  -7.369  10.982  0.00  0.00    +0.000 A 
ATOM      8  C   UNL     1      23.836  -7.106   8.587  0.00  0.00    +0.000 A 
ATOM      9  C   UNL     1      22.342  -5.883  10.039  0.00  0.00    +0.000 A 
ATOM     10  C   UNL     1      24.442  -7.689   9.700  0.00  0.00    +0.000 A 
ATOM     11  C   UNL     1      22.947  -6.466  11.153  0.00  0.00    +0.000 A 
ATOM     16  C   UNL     1      24.645  -7.991  12.173  0.00  0.00    +0.000 C 
ENDBRANCH   3   6
ENDBRANCH  13   3
TORSDOF 3
ENDMDL
MODEL 8
REMARK VINA RESULT:      -5.5     17.765     19.096
REMARK  Name = 2730383
REMARK  5 active torsions:
REMARK  status: ('A' for Active; 'I' for Inactive)
REMARK    1  A    between atoms: N_3  and  C_6
REMARK    2  A    between atoms: N_3  and  C_13
REMARK    3  A    between atoms: N_4  and  C_13
REMARK    4  A    between atoms: C_7  and  C_16
REMARK    5  A    between atoms: C_15  and  C_17
REMARK                            x       y       z     vdW  Elec       q    Type
REMARK                         _______ _______ _______ _____ _____    ______ ____
ROOT
ATOM      1  S   UNL     1      19.630 -12.571  24.801  0.00  0.00    +0.000 S 
ATOM     13  C   UNL     1      19.544 -12.582  23.117  0.00  0.00    +0.000 C 
ENDROOT
BRANCH  13   4
ATOM      2  O   UNL     1      16.937 -15.575  21.298  0.00  0.00    +0.000 OA
ATOM      4  N   UNL     1      19.705 -13.678  22.289  0.00  0.00    +0.000 N 
ATOM      5  N   UNL     1      17.481 -14.396  21.793  0.00  0.00    +0.000 NA
ATOM     12  C   UNL     1      18.773 -14.644  21.834  0.00  0.00    +0.000 A 
ATOM     14  C   UNL     1      19.139 -15.908  21.401  0.00  0.00    +0.000 A 
ATOM     15  C   UNL     1      17.933 -16.467  21.069  0.00  0.00    +0.000 A 
ATOM     17  C   UNL     1      17.532 -17.777  20.540  0.00  0.00    +0.000 C 
ATOM     19  H   UNL     1      20.649 -14.037  22.211  0.00  0.00    +0.000 HD
ENDBRANCH  13   4
BRANCH  13   3
ATOM      3  N   UNL     1      19.154 -11.393  22.486  0.00  0.00    +0.000 N 
ATOM     18  H   UNL     1      19.890 -10.979  21.920  0.00  0.00    +0.000 HD
BRANCH   3   6
ATOM      6  C   UNL     1      17.908 -10.783  22.335  0.00  0.00    +0.000 A 
ATOM      7  C   UNL     1      15.416  -9.565  22.033  0.00  0.00    +0.000 A 
ATOM      8  C   UNL     1      17.813  -9.528  21.734  0.00  0.00    +0.000 A 
ATOM      9  C   UNL     1      16.756 -11.429  22.786  0.00  0.00    +0.000 A 
ATOM     10  C   UNL     1      16.567  -8.919  21.582  0.00  0.00    +0.000 A 
ATOM     11  C   UNL     1      15.510 -10.820  22.634  0.00  0.00    +0.000 A 
ATOM     16  C   UNL     1      14.084  -8.914  21.871  0.00  0.00    +0.000 C 
ENDBRANCH   3   6
ENDBRANCH  13   3
TORSDOF 3
ENDMDL
MODEL 9
REMARK VINA RESULT:      -5.5      6.026      8.246
REMARK  Name = 2730383
REMARK  5 active torsions:
REMARK  status: ('A' for Active; 'I' for Inactive)
REMARK    1  A    between atoms: N_3  and  C_6
REMARK    2  A    between atoms: N_3  and  C_13
REMARK    3  A    between atoms: N_4  and  C_13
REMARK    4  A    between atoms: C_7  and  C_16
REMARK    5  A    between atoms: C_15  and  C_17
REMARK                            x       y       z     vdW  Elec       q    Type
REMARK                         _______ _______ _______ _____ _____    ______ ____
ROOT
ATOM      1  S   UNL     1      33.359  -2.171  13.535  0.00  0.00    +0.000 S 
ATOM     13  C   UNL     1      32.403  -1.793  12.199  0.00  0.00    +0.000 C 
ENDROOT
BRANCH  13   4
ATOM      2  O   UNL     1      29.151  -3.166   9.631  0.00  0.00    +0.000 OA
ATOM      4  N   UNL     1      31.026  -1.670  12.178  0.00  0.00    +0.000 N 
ATOM      5  N   UNL     1      30.319  -3.071  10.376  0.00  0.00    +0.000 NA
ATOM     12  C   UNL     1      30.070  -2.093  11.220  0.00  0.00    +0.000 A 
ATOM     14  C   UNL     1      28.814  -1.520  11.097  0.00  0.00    +0.000 A 
ATOM     15  C   UNL     1      28.262  -2.238  10.069  0.00  0.00    +0.000 A 
ATOM     17  C   UNL     1      26.964  -2.199   9.385  0.00  0.00    +0.000 C 
ATOM     19  H   UNL     1      30.640  -0.936  12.759  0.00  0.00    +0.000 HD
ENDBRANCH  13   4
BRANCH  13   3
ATOM      3  N   UNL     1      33.065  -1.449  11.012  0.00  0.00    +0.000 N 
ATOM     18  H   UNL     1      33.250  -2.248  10.411  0.00  0.00    +0.000 HD
BRANCH   3   6
ATOM      6  C   UNL     1      33.340  -0.215  10.422  0.00  0.00    +0.000 A 
ATOM      7  C   UNL     1      33.889   2.252   9.241  0.00  0.00    +0.000 A 
ATOM      8  C   UNL     1      34.277   0.641  10.999  0.00  0.00    +0.000 A 
ATOM      9  C   UNL     1      32.676   0.163   9.254  0.00  0.00    +0.000 A 
ATOM     10  C   UNL     1      34.552   1.875  10.408  0.00  0.00    +0.000 A 
ATOM     11  C   UNL     1      32.951   1.396   8.663  0.00  0.00    +0.000 A 
ATOM     16  C   UNL     1      34.183   3.570   8.609  0.00  0.00    +0.000 C 
ENDBRANCH   3   6
ENDBRANCH  13   3
TORSDOF 3
ENDMDL
